   20   20    1    1
  0.1927164E+02  0.8468780E-09  0.8468779E-09  0.5374116E-09  0.5000000E-15
  1.000000000000000E-004
  CAR 
 New structure                           
  158   52   96
 
  0.3742002E-15  0.3742002E-15  0.3742002E-15  0.1041667E-01
   1      -10.725003
   2      -10.278166
   3       -9.451671
   4       -9.451664
   5       -9.182811
   6       -9.125728
   7       -9.123779
   8       -9.123779
   9       -8.432717
  10       -8.398482
  11       -5.320507
  12       -5.162914
  13       -1.611085
  14       -1.611080
  15       -1.586228
  16       -1.584899
  17       -1.393424
  18       -1.211476
  19       -1.211468
  20       -0.834260
  21       -0.834247
  22       -0.833842
  23       -0.833834
  24       -0.671725
  25       -0.585137
  26       -0.523491
  27       -0.491570
  28       -0.464461
  29       -0.464449
  30       -0.346477
  31       -0.304449
  32       -0.301319
  33       -0.301290
  34       -0.250678
  35       -0.240892
  36       -0.197756
  37       -0.039919
  38       -0.039897
  39        0.003463
  40        0.003502
  41        0.589608
  42        0.755655
  43        0.812441
  44        0.812464
  45        0.822180
  46        0.838545
  47        0.843067
  48        0.855537
  49        0.879854
  50        0.919898
  51        0.919954
  52        0.938998
  53        0.939047
  54        0.964487
  55        1.076039
  56        1.076061
  57        1.122444
  58        1.328005
  59        1.356340
  60        1.444473
  61        1.444511
  62        1.518285
  63        1.641022
  64        1.883120
  65        1.897513
  66        1.897550
  67        2.099147
  68        2.099152
  69        2.267213
  70        2.294100
  71        2.330401
  72        2.330418
  73        2.682717
  74        2.686762
  75        2.935261
  76        3.023051
  77        3.023066
  78        4.113700
  79        4.172301
  80        4.197143
  81        4.197147
  82        4.757602
  83        5.941461
  84        6.307431
  85        6.307441
  86        6.759138
  87        6.759141
  88        7.038551
  89        7.707567
  90        8.398659
  91        8.648706
  92        9.011910
  93        9.074541
  94        9.397906
  95        9.463453
  96        9.463460
 
  0.2500000E+00  0.3742002E-15  0.3742002E-15  0.2083333E-01
   1      -10.671478
   2      -10.359824
   3       -9.431018
   4       -9.411046
   5       -9.233852
   6       -9.183316
   7       -9.136265
   8       -9.065994
   9       -8.409833
  10       -8.380930
  11       -5.301614
  12       -5.190484
  13       -1.618733
  14       -1.596601
  15       -1.529907
  16       -1.517246
  17       -1.408782
  18       -1.238498
  19       -1.115078
  20       -1.010324
  21       -0.961296
  22       -0.857584
  23       -0.833952
  24       -0.612859
  25       -0.543806
  26       -0.524890
  27       -0.475945
  28       -0.464814
  29       -0.459249
  30       -0.393339
  31       -0.329828
  32       -0.315607
  33       -0.269176
  34       -0.243841
  35       -0.230560
  36       -0.196840
  37       -0.060120
  38       -0.051934
  39       -0.022829
  40        0.001681
  41        0.610026
  42        0.744158
  43        0.778978
  44        0.797763
  45        0.816364
  46        0.839653
  47        0.844680
  48        0.889380
  49        0.900072
  50        0.903445
  51        0.912785
  52        0.965360
  53        0.969485
  54        0.971995
  55        1.076991
  56        1.093722
  57        1.240897
  58        1.292334
  59        1.327122
  60        1.407335
  61        1.438906
  62        1.528184
  63        1.707813
  64        1.830480
  65        1.881728
  66        1.917141
  67        2.061638
  68        2.073583
  69        2.149873
  70        2.291850
  71        2.348886
  72        2.469301
  73        2.536404
  74        2.697669
  75        2.996694
  76        3.269461
  77        3.422320
  78        3.534634
  79        3.972271
  80        4.079042
  81        4.611683
  82        4.738289
  83        6.150270
  84        6.211553
  85        6.355622
  86        6.567513
  87        6.637853
  88        6.906563
  89        7.863004
  90        8.516805
  91        8.735959
  92        8.944804
  93        9.147147
  94        9.159631
  95        9.321115
  96        9.437021
 
  0.5000000E+00  0.3742002E-15  0.3742002E-15  0.1041667E-01
   1      -10.528924
   2      -10.528916
   3       -9.352256
   4       -9.352234
   5       -9.305778
   6       -9.305775
   7       -9.073887
   8       -9.073870
   9       -8.375869
  10       -8.375781
  11       -5.250439
  12       -5.250434
  13       -1.607834
  14       -1.607820
  15       -1.430404
  16       -1.430386
  17       -1.344143
  18       -1.344136
  19       -1.127298
  20       -1.127281
  21       -0.944764
  22       -0.944738
  23       -0.766375
  24       -0.766273
  25       -0.498712
  26       -0.498688
  27       -0.445043
  28       -0.444942
  29       -0.397290
  30       -0.397177
  31       -0.368588
  32       -0.368577
  33       -0.305743
  34       -0.305731
  35       -0.179201
  36       -0.179089
  37       -0.079144
  38       -0.079061
  39       -0.004564
  40       -0.004436
  41        0.670443
  42        0.670451
  43        0.799740
  44        0.799880
  45        0.830168
  46        0.830266
  47        0.861043
  48        0.861084
  49        0.895753
  50        0.895824
  51        0.951724
  52        0.951798
  53        1.014709
  54        1.014720
  55        1.061689
  56        1.061719
  57        1.238924
  58        1.239019
  59        1.399846
  60        1.399900
  61        1.606303
  62        1.606348
  63        1.662384
  64        1.662432
  65        1.896155
  66        1.896181
  67        2.045684
  68        2.045725
  69        2.220261
  70        2.220343
  71        2.325016
  72        2.325099
  73        2.690946
  74        2.690962
  75        3.321311
  76        3.321341
  77        3.534186
  78        3.534195
  79        3.795920
  80        3.795943
  81        4.726053
  82        4.726070
  83        6.247015
  84        6.247106
  85        6.470018
  86        6.470112
  87        6.570162
  88        6.570175
  89        8.238378
  90        8.238418
  91        8.752825
  92        8.752853
  93        9.081928
  94        9.081951
  95        9.308047
  96        9.308136
 
  0.3742002E-15  0.2500000E+00  0.3742002E-15  0.2083333E-01
   1      -10.671478
   2      -10.359824
   3       -9.431013
   4       -9.411051
   5       -9.233852
   6       -9.183316
   7       -9.136265
   8       -9.065994
   9       -8.409833
  10       -8.380930
  11       -5.301614
  12       -5.190484
  13       -1.618733
  14       -1.596602
  15       -1.529909
  16       -1.517243
  17       -1.408784
  18       -1.238499
  19       -1.115067
  20       -1.010319
  21       -0.961304
  22       -0.857589
  23       -0.833950
  24       -0.612853
  25       -0.543808
  26       -0.524884
  27       -0.475936
  28       -0.464825
  29       -0.459254
  30       -0.393329
  31       -0.329839
  32       -0.315633
  33       -0.269172
  34       -0.243845
  35       -0.230552
  36       -0.196822
  37       -0.060137
  38       -0.051933
  39       -0.022823
  40        0.001703
  41        0.610027
  42        0.744153
  43        0.778983
  44        0.797768
  45        0.816399
  46        0.839645
  47        0.844644
  48        0.889391
  49        0.900064
  50        0.903432
  51        0.912772
  52        0.965388
  53        0.969466
  54        0.971994
  55        1.076967
  56        1.093731
  57        1.240895
  58        1.292326
  59        1.327126
  60        1.407341
  61        1.438908
  62        1.528188
  63        1.707798
  64        1.830483
  65        1.881752
  66        1.917153
  67        2.061630
  68        2.073588
  69        2.149865
  70        2.291848
  71        2.348897
  72        2.469303
  73        2.536404
  74        2.697662
  75        2.996693
  76        3.269462
  77        3.422319
  78        3.534637
  79        3.972271
  80        4.079040
  81        4.611682
  82        4.738288
  83        6.150271
  84        6.211559
  85        6.355614
  86        6.567517
  87        6.637849
  88        6.906563
  89        7.863003
  90        8.516804
  91        8.735957
  92        8.944804
  93        9.147217
  94        9.159628
  95        9.321477
  96        9.436810
 
  0.2500000E+00  0.2500000E+00  0.3742002E-15  0.2083333E-01
   1      -10.625501
   2      -10.400005
   3       -9.540677
   4       -9.376913
   5       -9.267615
   6       -9.123631
   7       -9.111879
   8       -9.066345
   9       -8.390062
  10       -8.367470
  11       -5.292327
  12       -5.213786
  13       -1.635644
  14       -1.618026
  15       -1.524842
  16       -1.406386
  17       -1.386944
  18       -1.219732
  19       -1.111030
  20       -1.054160
  21       -0.950794
  22       -0.873044
  23       -0.867651
  24       -0.681922
  25       -0.605446
  26       -0.540309
  27       -0.510233
  28       -0.424707
  29       -0.402270
  30       -0.392667
  31       -0.348235
  32       -0.334491
  33       -0.284815
  34       -0.257709
  35       -0.176486
  36       -0.150940
  37       -0.074768
  38       -0.054169
  39       -0.051143
  40       -0.019868
  41        0.628971
  42        0.752977
  43        0.782796
  44        0.782963
  45        0.822638
  46        0.829106
  47        0.840437
  48        0.875610
  49        0.902188
  50        0.911361
  51        0.912355
  52        0.949186
  53        0.951027
  54        1.004511
  55        1.039854
  56        1.134710
  57        1.227347
  58        1.280240
  59        1.326537
  60        1.400934
  61        1.501083
  62        1.523520
  63        1.545096
  64        1.851616
  65        1.929537
  66        1.932971
  67        2.027350
  68        2.126328
  69        2.178260
  70        2.280948
  71        2.495427
  72        2.522855
  73        2.701971
  74        2.775097
  75        2.915212
  76        3.121621
  77        3.278047
  78        3.763927
  79        3.789788
  80        4.023793
  81        4.695984
  82        4.711616
  83        6.096690
  84        6.294025
  85        6.319559
  86        6.406823
  87        6.665795
  88        6.778081
  89        8.043604
  90        8.552422
  91        8.773864
  92        8.875240
  93        9.028979
  94        9.366484
  95        9.376032
  96        9.397952
 
  0.5000000E+00  0.2500000E+00  0.3742002E-15  0.2083333E-01
   1      -10.511504
   2      -10.510931
   3       -9.525227
   4       -9.511451
   5       -9.189349
   6       -9.136209
   7       -9.092674
   8       -9.055321
   9       -8.363616
  10       -8.360256
  11       -5.260816
  12       -5.259435
  13       -1.657768
  14       -1.618767
  15       -1.456480
  16       -1.399867
  17       -1.303896
  18       -1.265655
  19       -1.107446
  20       -1.078914
  21       -0.930028
  22       -0.909041
  23       -0.787097
  24       -0.773272
  25       -0.665976
  26       -0.629727
  27       -0.450465
  28       -0.435857
  29       -0.403584
  30       -0.371207
  31       -0.356405
  32       -0.334809
  33       -0.303348
  34       -0.299044
  35       -0.145823
  36       -0.104592
  37       -0.102326
  38       -0.083872
  39       -0.035271
  40       -0.030580
  41        0.700509
  42        0.709852
  43        0.774090
  44        0.783679
  45        0.803806
  46        0.810069
  47        0.876069
  48        0.885370
  49        0.887182
  50        0.893219
  51        0.927679
  52        0.947706
  53        0.956177
  54        0.998380
  55        1.078402
  56        1.137197
  57        1.213823
  58        1.232411
  59        1.294762
  60        1.397797
  61        1.422825
  62        1.555465
  63        1.663304
  64        1.736592
  65        1.940733
  66        1.967773
  67        2.102207
  68        2.136869
  69        2.323377
  70        2.336833
  71        2.365529
  72        2.480027
  73        2.769162
  74        2.868529
  75        2.995550
  76        3.169345
  77        3.361514
  78        3.431334
  79        3.735875
  80        4.032577
  81        4.689656
  82        4.759865
  83        6.024242
  84        6.143864
  85        6.496895
  86        6.537855
  87        6.565452
  88        6.615447
  89        8.280915
  90        8.362731
  91        8.767236
  92        8.821268
  93        9.077455
  94        9.182344
  95        9.303016
  96        9.514882
 
 -0.2500000E+00  0.2500000E+00  0.3742002E-15  0.2083333E-01
   1      -10.625502
   2      -10.400003
   3       -9.540682
   4       -9.376911
   5       -9.267612
   6       -9.123630
   7       -9.111879
   8       -9.066346
   9       -8.390062
  10       -8.367470
  11       -5.292328
  12       -5.213786
  13       -1.635649
  14       -1.618025
  15       -1.524842
  16       -1.406379
  17       -1.386939
  18       -1.219742
  19       -1.111035
  20       -1.054154
  21       -0.950789
  22       -0.873053
  23       -0.867650
  24       -0.681933
  25       -0.605445
  26       -0.540292
  27       -0.510218
  28       -0.424714
  29       -0.402267
  30       -0.392658
  31       -0.348252
  32       -0.334497
  33       -0.284792
  34       -0.257719
  35       -0.176486
  36       -0.150951
  37       -0.074792
  38       -0.054204
  39       -0.051112
  40       -0.019840
  41        0.628957
  42        0.752980
  43        0.782809
  44        0.782992
  45        0.822604
  46        0.829115
  47        0.840424
  48        0.875593
  49        0.902237
  50        0.911339
  51        0.912345
  52        0.949183
  53        0.951031
  54        1.004517
  55        1.039827
  56        1.134738
  57        1.227337
  58        1.280252
  59        1.326514
  60        1.400931
  61        1.501092
  62        1.523526
  63        1.545131
  64        1.851619
  65        1.929536
  66        1.932939
  67        2.027327
  68        2.126316
  69        2.178242
  70        2.280968
  71        2.495428
  72        2.522880
  73        2.701977
  74        2.775094
  75        2.915230
  76        3.121619
  77        3.278038
  78        3.763917
  79        3.789788
  80        4.023799
  81        4.695983
  82        4.711615
  83        6.096684
  84        6.294025
  85        6.319563
  86        6.406831
  87        6.665794
  88        6.778079
  89        8.043606
  90        8.552422
  91        8.773864
  92        8.875230
  93        9.028979
  94        9.365173
  95        9.377116
  96        9.397589
 
  0.3742002E-15  0.5000000E+00  0.3742002E-15  0.1041667E-01
   1      -10.528926
   2      -10.528914
   3       -9.352251
   4       -9.352235
   5       -9.305783
   6       -9.305774
   7       -9.073882
   8       -9.073873
   9       -8.375869
  10       -8.375782
  11       -5.250437
  12       -5.250435
  13       -1.607835
  14       -1.607821
  15       -1.430410
  16       -1.430393
  17       -1.344138
  18       -1.344130
  19       -1.127287
  20       -1.127280
  21       -0.944771
  22       -0.944739
  23       -0.766371
  24       -0.766269
  25       -0.498689
  26       -0.498682
  27       -0.445049
  28       -0.444947
  29       -0.397326
  30       -0.397190
  31       -0.368586
  32       -0.368574
  33       -0.305760
  34       -0.305732
  35       -0.179179
  36       -0.179078
  37       -0.079145
  38       -0.079068
  39       -0.004546
  40       -0.004421
  41        0.670440
  42        0.670457
  43        0.799755
  44        0.799888
  45        0.830200
  46        0.830273
  47        0.860982
  48        0.861083
  49        0.895704
  50        0.895827
  51        0.951756
  52        0.951781
  53        1.014715
  54        1.014721
  55        1.061657
  56        1.061718
  57        1.238900
  58        1.239021
  59        1.399852
  60        1.399899
  61        1.606305
  62        1.606339
  63        1.662401
  64        1.662438
  65        1.896171
  66        1.896189
  67        2.045681
  68        2.045725
  69        2.220277
  70        2.220358
  71        2.325025
  72        2.325097
  73        2.690904
  74        2.690974
  75        3.321321
  76        3.321343
  77        3.534179
  78        3.534205
  79        3.795915
  80        3.795942
  81        4.726051
  82        4.726068
  83        6.247022
  84        6.247110
  85        6.470011
  86        6.470108
  87        6.570162
  88        6.570172
  89        8.238378
  90        8.238415
  91        8.752822
  92        8.752850
  93        9.081936
  94        9.081959
  95        9.308055
  96        9.308139
 
  0.2500000E+00  0.5000000E+00  0.3742002E-15  0.2083333E-01
   1      -10.511502
   2      -10.510933
   3       -9.525224
   4       -9.511455
   5       -9.189349
   6       -9.136211
   7       -9.092673
   8       -9.055321
   9       -8.363616
  10       -8.360256
  11       -5.260815
  12       -5.259436
  13       -1.657765
  14       -1.618771
  15       -1.456483
  16       -1.399865
  17       -1.303903
  18       -1.265646
  19       -1.107439
  20       -1.078917
  21       -0.930018
  22       -0.909049
  23       -0.787095
  24       -0.773273
  25       -0.665987
  26       -0.629717
  27       -0.450451
  28       -0.435879
  29       -0.403559
  30       -0.371213
  31       -0.356435
  32       -0.334802
  33       -0.303333
  34       -0.299058
  35       -0.145825
  36       -0.104578
  37       -0.102317
  38       -0.083899
  39       -0.035279
  40       -0.030547
  41        0.700528
  42        0.709838
  43        0.774095
  44        0.783680
  45        0.803809
  46        0.810050
  47        0.876073
  48        0.885388
  49        0.887147
  50        0.893210
  51        0.927672
  52        0.947693
  53        0.956185
  54        0.998377
  55        1.078443
  56        1.137168
  57        1.213830
  58        1.232426
  59        1.294752
  60        1.397801
  61        1.422818
  62        1.555465
  63        1.663271
  64        1.736623
  65        1.940716
  66        1.967787
  67        2.102214
  68        2.136882
  69        2.323366
  70        2.336836
  71        2.365522
  72        2.480049
  73        2.769164
  74        2.868512
  75        2.995562
  76        3.169335
  77        3.361515
  78        3.431334
  79        3.735884
  80        4.032569
  81        4.689655
  82        4.759865
  83        6.024246
  84        6.143860
  85        6.496896
  86        6.537862
  87        6.565450
  88        6.615441
  89        8.280912
  90        8.362732
  91        8.767237
  92        8.821269
  93        9.077463
  94        9.182349
  95        9.302984
  96        9.514501
 
  0.5000000E+00  0.5000000E+00  0.3742002E-15  0.1041667E-01
   1      -10.492030
   2      -10.492025
   3       -9.605315
   4       -9.605255
   5       -9.116903
   6       -9.116899
   7       -9.058206
   8       -9.058203
   9       -8.347423
  10       -8.347338
  11       -5.269891
  12       -5.269887
  13       -1.665742
  14       -1.665703
  15       -1.378975
  16       -1.378974
  17       -1.321187
  18       -1.321177
  19       -0.903155
  20       -0.903120
  21       -0.899633
  22       -0.899519
  23       -0.863114
  24       -0.863108
  25       -0.789590
  26       -0.789579
  27       -0.458996
  28       -0.458973
  29       -0.377724
  30       -0.377693
  31       -0.337904
  32       -0.337876
  33       -0.301710
  34       -0.301687
  35       -0.128553
  36       -0.128528
  37       -0.062866
  38       -0.062825
  39       -0.057607
  40       -0.057588
  41        0.761474
  42        0.761495
  43        0.782713
  44        0.782718
  45        0.797773
  46        0.797906
  47        0.843387
  48        0.843427
  49        0.891618
  50        0.891762
  51        0.928978
  52        0.929000
  53        1.011516
  54        1.011662
  55        1.012242
  56        1.012288
  57        1.222931
  58        1.223042
  59        1.311436
  60        1.311444
  61        1.476865
  62        1.476907
  63        1.676750
  64        1.676796
  65        2.038041
  66        2.038080
  67        2.185484
  68        2.185513
  69        2.382925
  70        2.382967
  71        2.604756
  72        2.604784
  73        2.753319
  74        2.753340
  75        3.141973
  76        3.142006
  77        3.210002
  78        3.210044
  79        3.786807
  80        3.786818
  81        4.777350
  82        4.777352
  83        5.940835
  84        5.940852
  85        6.567619
  86        6.567621
  87        6.666441
  88        6.666456
  89        8.302996
  90        8.302998
  91        9.006274
  92        9.006353
  93        9.053929
  94        9.053983
  95        9.303697
  96        9.303720
 
  0.3742002E-15  0.3742002E-15  0.1666667E+00  0.2083333E-01
   1      -10.660428
   2      -10.251355
   3       -9.425087
   4       -9.425080
   5       -9.237055
   6       -9.180757
   7       -9.140161
   8       -9.140160
   9       -8.453643
  10       -8.395686
  11       -5.321191
  12       -5.163865
  13       -1.680654
  14       -1.680652
  15       -1.659227
  16       -1.628343
  17       -1.397114
  18       -1.397104
  19       -1.345321
  20       -0.798233
  21       -0.798225
  22       -0.690562
  23       -0.690549
  24       -0.673207
  25       -0.652225
  26       -0.551205
  27       -0.463683
  28       -0.447043
  29       -0.447030
  30       -0.380157
  31       -0.349091
  32       -0.315316
  33       -0.315287
  34       -0.245481
  35       -0.194471
  36       -0.187503
  37       -0.075685
  38       -0.075664
  39       -0.037877
  40       -0.037846
  41        0.690901
  42        0.741763
  43        0.816438
  44        0.823583
  45        0.823606
  46        0.836872
  47        0.865734
  48        0.876908
  49        0.892343
  50        0.892364
  51        0.932698
  52        0.955100
  53        0.955127
  54        0.964570
  55        0.978367
  56        0.978386
  57        1.094132
  58        1.164894
  59        1.287924
  60        1.584362
  61        1.584368
  62        1.619457
  63        1.742508
  64        1.754569
  65        1.754598
  66        1.940991
  67        2.246984
  68        2.292601
  69        2.292613
  70        2.544400
  71        2.579819
  72        2.586594
  73        2.586608
  74        2.818735
  75        2.997361
  76        3.012662
  77        3.012673
  78        3.451246
  79        3.993611
  80        3.993617
  81        4.686817
  82        4.705217
  83        6.014591
  84        6.422175
  85        6.422185
  86        6.736751
  87        6.736755
  88        6.947547
  89        7.854088
  90        8.330257
  91        8.562634
  92        9.137444
  93        9.484325
  94        9.490849
  95        9.592646
  96        9.592850
 
  0.2500000E+00  0.3742002E-15  0.1666667E+00  0.2083333E-01
   1      -10.610128
   2      -10.323612
   3       -9.418976
   4       -9.387132
   5       -9.261204
   6       -9.189157
   7       -9.187483
   8       -9.108305
   9       -8.429419
  10       -8.386964
  11       -5.300369
  12       -5.189821
  13       -1.759727
  14       -1.668961
  15       -1.633107
  16       -1.488529
  17       -1.469809
  18       -1.413139
  19       -1.166926
  20       -0.981625
  21       -0.848527
  22       -0.799085
  23       -0.696636
  24       -0.655991
  25       -0.539262
  26       -0.521030
  27       -0.474216
  28       -0.450564
  29       -0.418288
  30       -0.405904
  31       -0.342124
  32       -0.313960
  33       -0.299319
  34       -0.251878
  35       -0.210044
  36       -0.180330
  37       -0.100879
  38       -0.091299
  39       -0.062122
  40       -0.041260
  41        0.692392
  42        0.753489
  43        0.801446
  44        0.815025
  45        0.827615
  46        0.834391
  47        0.867597
  48        0.883776
  49        0.897408
  50        0.910815
  51        0.912246
  52        0.944511
  53        0.956196
  54        0.965939
  55        0.991414
  56        0.994974
  57        1.129515
  58        1.231321
  59        1.324480
  60        1.474165
  61        1.527951
  62        1.678998
  63        1.737370
  64        1.782109
  65        1.791707
  66        1.944531
  67        2.117120
  68        2.272421
  69        2.329366
  70        2.418051
  71        2.482164
  72        2.487127
  73        2.681209
  74        2.760189
  75        3.085900
  76        3.142321
  77        3.276585
  78        3.414069
  79        3.866854
  80        4.103137
  81        4.637598
  82        4.684030
  83        6.208441
  84        6.419072
  85        6.452771
  86        6.547458
  87        6.648786
  88        6.890096
  89        8.092262
  90        8.438895
  91        8.767433
  92        9.051928
  93        9.054056
  94        9.284333
  95        9.298187
  96        9.605434
 
  0.5000000E+00  0.3742002E-15  0.1666667E+00  0.2083333E-01
   1      -10.477472
   2      -10.477465
   3       -9.361956
   4       -9.361929
   5       -9.291742
   6       -9.291733
   7       -9.124572
   8       -9.124556
   9       -8.392017
  10       -8.391926
  11       -5.247689
  12       -5.247684
  13       -1.740890
  14       -1.740882
  15       -1.544538
  16       -1.544513
  17       -1.372361
  18       -1.372350
  19       -1.081913
  20       -1.081887
  21       -0.877956
  22       -0.877926
  23       -0.726251
  24       -0.726179
  25       -0.472982
  26       -0.472950
  27       -0.445492
  28       -0.445375
  29       -0.397618
  30       -0.397557
  31       -0.359520
  32       -0.359493
  33       -0.302501
  34       -0.302430
  35       -0.188161
  36       -0.188052
  37       -0.120807
  38       -0.120711
  39       -0.047923
  40       -0.047800
  41        0.711698
  42        0.711738
  43        0.822306
  44        0.822414
  45        0.832334
  46        0.832465
  47        0.877649
  48        0.877699
  49        0.900694
  50        0.900755
  51        0.919031
  52        0.919094
  53        0.955334
  54        0.955381
  55        1.028209
  56        1.028229
  57        1.202954
  58        1.202985
  59        1.511091
  60        1.511168
  61        1.561377
  62        1.561412
  63        1.622848
  64        1.622928
  65        1.920166
  66        1.920184
  67        2.169320
  68        2.169342
  69        2.341649
  70        2.341677
  71        2.448571
  72        2.448591
  73        2.635219
  74        2.635229
  75        3.198019
  76        3.198032
  77        3.609204
  78        3.609226
  79        3.849004
  80        3.849015
  81        4.643206
  82        4.643215
  83        6.387021
  84        6.387107
  85        6.504897
  86        6.504973
  87        6.645730
  88        6.645747
  89        8.324897
  90        8.324937
  91        8.895118
  92        8.895136
  93        9.129929
  94        9.129960
  95        9.390556
  96        9.390593
 
 -0.2500000E+00  0.3742002E-15  0.1666667E+00  0.2083333E-01
   1      -10.610128
   2      -10.323611
   3       -9.418978
   4       -9.387132
   5       -9.261201
   6       -9.189156
   7       -9.187483
   8       -9.108307
   9       -8.429419
  10       -8.386964
  11       -5.300369
  12       -5.189821
  13       -1.759728
  14       -1.668961
  15       -1.633108
  16       -1.488526
  17       -1.469810
  18       -1.413135
  19       -1.166926
  20       -0.981627
  21       -0.848534
  22       -0.799085
  23       -0.696634
  24       -0.655988
  25       -0.539258
  26       -0.521031
  27       -0.474210
  28       -0.450567
  29       -0.418292
  30       -0.405907
  31       -0.342125
  32       -0.313962
  33       -0.299317
  34       -0.251873
  35       -0.210045
  36       -0.180326
  37       -0.100882
  38       -0.091303
  39       -0.062121
  40       -0.041260
  41        0.692396
  42        0.753486
  43        0.801440
  44        0.815018
  45        0.827625
  46        0.834396
  47        0.867604
  48        0.883769
  49        0.897414
  50        0.910801
  51        0.912242
  52        0.944509
  53        0.956206
  54        0.965948
  55        0.991416
  56        0.994970
  57        1.129500
  58        1.231326
  59        1.324482
  60        1.474169
  61        1.527961
  62        1.678994
  63        1.737360
  64        1.782121
  65        1.791701
  66        1.944524
  67        2.117126
  68        2.272422
  69        2.329361
  70        2.418056
  71        2.482160
  72        2.487125
  73        2.681207
  74        2.760189
  75        3.085905
  76        3.142320
  77        3.276583
  78        3.414070
  79        3.866853
  80        4.103138
  81        4.637599
  82        4.684030
  83        6.208443
  84        6.419069
  85        6.452771
  86        6.547456
  87        6.648787
  88        6.890097
  89        8.092264
  90        8.438894
  91        8.767435
  92        9.051927
  93        9.054053
  94        9.284328
  95        9.298188
  96        9.605425
 
  0.3742002E-15  0.2500000E+00  0.1666667E+00  0.2083333E-01
   1      -10.610128
   2      -10.323611
   3       -9.418975
   4       -9.387136
   5       -9.261201
   6       -9.189155
   7       -9.187484
   8       -9.108306
   9       -8.429419
  10       -8.386964
  11       -5.300369
  12       -5.189821
  13       -1.759728
  14       -1.668961
  15       -1.633109
  16       -1.488524
  17       -1.469811
  18       -1.413138
  19       -1.166922
  20       -0.981623
  21       -0.848532
  22       -0.799095
  23       -0.696636
  24       -0.655981
  25       -0.539253
  26       -0.521042
  27       -0.474210
  28       -0.450551
  29       -0.418302
  30       -0.405893