 vasp.5.2.12 11Nov11 complex                                                    
  
 executed on             LinuxIFC date 2014.05.20  11:40:45
 running on   24 nodes
 distr:  one band on    1 nodes,   24 groups


--------------------------------------------------------------------------------------------------------


 INCAR:
 POTCAR:   PAW_PBE Sb 06Sep2000                   
 POTCAR:    PAW_PBE S 17Jan2003                   
 POTCAR:   PAW_PBE Cu 05Jan2001                   

 ----------------------------------------------------------------------------- 
|                                                                             |
|           W    W    AA    RRRRR   N    N  II  N    N   GGGG   !!!           |
|           W    W   A  A   R    R  NN   N  II  NN   N  G    G  !!!           |
|           W    W  A    A  R    R  N N  N  II  N N  N  G       !!!           |
|           W WW W  AAAAAA  RRRRR   N  N N  II  N  N N  G  GGG   !            |
|           WW  WW  A    A  R   R   N   NN  II  N   NN  G    G                |
|           W    W  A    A  R    R  N    N  II  N    N   GGGG   !!!           |
|                                                                             |
|      For optimal performance we recommend that you set                      |
|        NPAR = approx SQRT( number of cores)                                 |
|      This will greatly improve the performance of VASP for DFT.             |
|      The default NPAR=number of cores might be grossly inefficient          |
|      on modern multi-core architectures or massively parallel machines.     |
|      Unfortunately you need to use the default for hybrid, GW and RPA       |
|      calculations.                                                          |
|                                                                             |
 ----------------------------------------------------------------------------- 

 POTCAR:   PAW_PBE Sb 06Sep2000                   
   VRHFIN =Sb: s2p3                                                             
   LEXCH  = PE                                                                  
   EATOM  =   149.8037 eV,   11.0103 Ry                                         
                                                                                
   TITEL  = PAW_PBE Sb 06Sep2000                                                
   LULTRA =        F    use ultrasoft PP ?                                      
   IUNSCR =        1    unscreen: 0-lin 1-nonlin 2-no                           
   RPACOR =    2.200    partial core radius                                     
   POMASS =  121.750; ZVAL   =    5.000    mass and valenz                      
   RCORE  =    2.300    outmost cutoff radius                                   
   RWIGS  =    2.980; RWIGS  =    1.577    wigner-seitz radius (au A)           
   ENMAX  =  172.037; ENMIN  =  129.028 eV                                      
   ICORE  =        3    local potential                                         
   LCOR   =        T    correct aug charges                                     
   LPAW   =        T    paw PP                                                  
   EAUG   =  380.513                                                            
   DEXC   =    -.415                                                            
   RMAX   =    3.515    core radius for proj-oper                               
   RAUG   =    1.300    factor for augmentation sphere                          
   RDEP   =    2.360    radius for radial grids                                 
   QCUT   =   -3.556; QGAM   =    7.112    optimization parameters              
                                                                                
   Description                                                                  
     l     E      TYP  RCUT    TYP  RCUT                                        
     0   .000     23  2.300                                                     
     0  1.000     23  2.300                                                     
     1   .000     23  2.300                                                     
     1   .000     23  2.300                                                     
     2   .000     23  2.300                                                     
     3  -.100     23  2.300                                                     
  local pseudopotential read in
  partial core-charges read in
  atomic valenz-charges read in
  non local Contribution for L=           0  read in
    real space projection operators read in
  non local Contribution for L=           0  read in
    real space projection operators read in
  non local Contribution for L=           1  read in
    real space projection operators read in
  non local Contribution for L=           1  read in
    real space projection operators read in
  non local Contribution for L=           2  read in
    real space projection operators read in
    PAW grid and wavefunctions read in
 
   number of l-projection  operators is LMAX  =           5
   number of lm-projection operators is LMMAX =          13
 
 POTCAR:    PAW_PBE S 17Jan2003                   
   VRHFIN =S : s2p4                                                             
   LEXCH  = PE                                                                  
   EATOM  =   276.8230 eV,   20.3459 Ry                                         
                                                                                
   TITEL  = PAW_PBE S 17Jan2003                                                 
   LULTRA =        F    use ultrasoft PP ?                                      
   IUNSCR =        1    unscreen: 0-lin 1-nonlin 2-no                           
   RPACOR =    1.500    partial core radius                                     
   POMASS =   32.066; ZVAL   =    6.000    mass and valenz                      
   RCORE  =    1.900    outmost cutoff radius                                   
   RWIGS  =    2.200; RWIGS  =    1.164    wigner-seitz radius (au A)           
   ENMAX  =  280.000; ENMIN  =  194.016 eV                                      
   ICORE  =        2    local potential                                         
   LCOR   =        T    correct aug charges                                     
   LPAW   =        T    paw PP                                                  
   EAUG   =  335.092                                                            
   DEXC   =     .000                                                            
   RMAX   =    2.867    core radius for proj-oper                               
   RAUG   =    1.300    factor for augmentation sphere                          
   RDEP   =    1.954    radius for radial grids                                 
   QCUT   =   -4.360; QGAM   =    8.721    optimization parameters              
                                                                                
   Description                                                                  
     l     E      TYP  RCUT    TYP  RCUT                                        
     0   .000     23  1.900                                                     
     0   .000     23  1.900                                                     
     1   .000     23  1.900                                                     
     1   .000     23  1.900                                                     
     2   .000     23  1.900                                                     
  local pseudopotential read in
  partial core-charges read in
  atomic valenz-charges read in
  non local Contribution for L=           0  read in
    real space projection operators read in
  non local Contribution for L=           0  read in
    real space projection operators read in
  non local Contribution for L=           1  read in
    real space projection operators read in
  non local Contribution for L=           1  read in
    real space projection operators read in
    PAW grid and wavefunctions read in
 
   number of l-projection  operators is LMAX  =           4
   number of lm-projection operators is LMMAX =           8
 
 POTCAR:   PAW_PBE Cu 05Jan2001                   
   VRHFIN =Cu: d10 p1                                                           
   LEXCH  = PE                                                                  
   EATOM  =  1390.9800 eV,  102.2341 Ry                                         
                                                                                
   TITEL  = PAW_PBE Cu 05Jan2001                                                
   LULTRA =        F    use ultrasoft PP ?                                      
   IUNSCR =        1    unscreen: 0-lin 1-nonlin 2-no                           
   RPACOR =    2.000    partial core radius                                     
   POMASS =   63.546; ZVAL   =   11.000    mass and valenz                      
   RCORE  =    2.300    outmost cutoff radius                                   
   RWIGS  =    2.480; RWIGS  =    1.312    wigner-seitz radius (au A)           
   ENMAX  =  273.214; ENMIN  =  204.910 eV                                      
   RCLOC  =    1.712    cutoff for local pot                                    
   LCOR   =        T    correct aug charges                                     
   LPAW   =        T    paw PP                                                  
   EAUG   =  516.456                                                            
   DEXC   =    -.008                                                            
   RMAX   =    2.789    core radius for proj-oper                               
   RAUG   =    1.300    factor for augmentation sphere                          
   RDEP   =    2.302    radius for radial grids                                 
   QCUT   =   -4.481; QGAM   =    8.962    optimization parameters              
                                                                                
   Description                                                                  
     l     E      TYP  RCUT    TYP  RCUT                                        
     2   .000     23  2.300                                                     
     2   .000     23  2.300                                                     
     0   .000     23  2.300                                                     
     0   .000     23  2.300                                                     
     1  -.200     23  2.300                                                     
     1   .000     23  2.300                                                     
     3   .000      7   .000                                                     
  local pseudopotential read in
  partial core-charges read in
  atomic valenz-charges read in
  non local Contribution for L=           2  read in
    real space projection operators read in
  non local Contribution for L=           2  read in
    real space projection operators read in
  non local Contribution for L=           0  read in
    real space projection operators read in
  non local Contribution for L=           0  read in
    real space projection operators read in
  non local Contribution for L=           1  read in
    real space projection operators read in
  non local Contribution for L=           1  read in
    real space projection operators read in
    PAW grid and wavefunctions read in
 
   number of l-projection  operators is LMAX  =           6
   number of lm-projection operators is LMMAX =          18
 

 ----------------------------------------------------------------------------- 
|                                                                             |
|  ADVICE TO THIS USER RUNNING 'VASP/VAMP'   (HEAR YOUR MASTER'S VOICE ...):  |
|                                                                             |
|      You have a (more or less) 'large supercell' and for larger cells       |
|      it might be more efficient to use real space projection opertators     |
|      So try LREAL= Auto  in the INCAR   file.                               |
|      Mind: At the moment your POTCAR file does not contain real space       |
|       projectors, and has to be modified,  BUT if you                       |
|      want to do an extremely  accurate calculation you might also keep the  |
|      reciprocal projection scheme          (i.e. LREAL=.FALSE.)             |
|                                                                             |
 ----------------------------------------------------------------------------- 

 PAW_PBE Sb 06Sep2000                   :
 energy of atom  1       EATOM= -149.8037
 kinetic energy error for atom=    0.0014 (will be added to EATOM!!)
  PAW_PBE S 17Jan2003                   :
 energy of atom  2       EATOM= -276.8230
 kinetic energy error for atom=    0.0051 (will be added to EATOM!!)
 PAW_PBE Cu 05Jan2001                   :
 energy of atom  3       EATOM=-1390.9800
 kinetic energy error for atom=    0.0284 (will be added to EATOM!!)
 
 
 POSCAR: New structure                           
  positions in direct lattice
  No initial velocities read in
 exchange correlation table for  LEXCH =        8
   RHO(1)=    0.500       N(1)  =     2000
   RHO(2)=  100.500       N(2)  =     4000
 


--------------------------------------------------------------------------------------------------------


 ion  position               nearest neighbor table
   1  0.000  0.500  0.750-   9 2.441  10 2.441   3 2.441   4 2.441
   2  0.500  1.000  0.250-   8 2.441   7 2.441   5 2.441   6 2.441
   3  0.104  0.710  0.487-  19 2.311  14 2.313  17 2.314   1 2.441
   4  0.896  0.290  0.487-  20 2.311  13 2.313  18 2.314   1 2.441
   5  0.710  0.896  0.513-  18 2.311  16 2.313  19 2.314   2 2.441
   6  0.290  0.104  0.513-  17 2.311  15 2.313  20 2.314   2 2.441
   7  0.604  0.210  0.987-  15 2.311  18 2.313  13 2.314   2 2.441
   8  0.396  0.790  0.987-  16 2.311  17 2.313  14 2.314   2 2.441
   9  0.210  0.396  0.013-  14 2.311  20 2.313  15 2.314   1 2.441
  10  0.790  0.604  0.013-  13 2.311  19 2.313  16 2.314   1 2.441
  11  1.000  0.000  1.000-  18 2.243  20 2.243  17 2.243  19 2.243
  12  0.500  0.500  0.500-  13 2.243  14 2.243  15 2.243  16 2.243
  13  0.693  0.403  0.259-  12 2.243  10 2.311   4 2.313   7 2.314
  14  0.307  0.597  0.259-  12 2.243   9 2.311   3 2.313   8 2.314
  15  0.403  0.307  0.741-  12 2.243   7 2.311   6 2.313   9 2.314
  16  0.597  0.693  0.741-  12 2.243   8 2.311   5 2.313  10 2.314
  17  0.193  0.903  0.759-  11 2.243   6 2.311   8 2.313   3 2.314
  18  0.807  0.097  0.759-  11 2.243   5 2.311   7 2.313   4 2.314
  19  0.903  0.807  0.241-  11 2.243   3 2.311  10 2.313   5 2.314
  20  0.097  0.193  0.241-  11 2.243   4 2.311   9 2.313   6 2.314
 

IMPORTANT INFORMATION: All symmetrisations will be switched off!
NOSYMM: (Re-)initialisation of all symmetry stuff for point group C_1.

 
 
 KPOINTS:                                         

Automatic generation of k-mesh.
 generate k-points for:    4    4    6
 
 Subroutine IBZKPT returns following result:
 ===========================================
 
 Found     52 irreducible k-points:
 
 Following reciprocal coordinates:
            Coordinates               Weight
  0.000000  0.000000  0.000000      1.000000
  0.250000  0.000000  0.000000      2.000000
  0.500000  0.000000  0.000000      1.000000
  0.000000  0.250000  0.000000      2.000000
  0.250000  0.250000  0.000000      2.000000
  0.500000  0.250000  0.000000      2.000000
 -0.250000  0.250000  0.000000      2.000000
  0.000000  0.500000  0.000000      1.000000
  0.250000  0.500000  0.000000      2.000000
  0.500000  0.500000  0.000000      1.000000
  0.000000  0.000000  0.166667      2.000000
  0.250000  0.000000  0.166667      2.000000
  0.500000  0.000000  0.166667      2.000000
 -0.250000  0.000000  0.166667      2.000000
  0.000000  0.250000  0.166667      2.000000
  0.250000  0.250000  0.166667      2.000000
  0.500000  0.250000  0.166667      2.000000
 -0.250000  0.250000  0.166667      2.000000
  0.000000  0.500000  0.166667      2.000000
  0.250000  0.500000  0.166667      2.000000
  0.500000  0.500000  0.166667      2.000000
 -0.250000  0.500000  0.166667      2.000000
  0.000000 -0.250000  0.166667      2.000000
  0.250000 -0.250000  0.166667      2.000000
  0.500000 -0.250000  0.166667      2.000000
 -0.250000 -0.250000  0.166667      2.000000
  0.000000  0.000000  0.333333      2.000000
  0.250000  0.000000  0.333333      2.000000
  0.500000  0.000000  0.333333      2.000000
 -0.250000  0.000000  0.333333      2.000000
  0.000000  0.250000  0.333333      2.000000
  0.250000  0.250000  0.333333      2.000000
  0.500000  0.250000  0.333333      2.000000
 -0.250000  0.250000  0.333333      2.000000
  0.000000  0.500000  0.333333      2.000000
  0.250000  0.500000  0.333333      2.000000
  0.500000  0.500000  0.333333      2.000000
 -0.250000  0.500000  0.333333      2.000000
  0.000000 -0.250000  0.333333      2.000000
  0.250000 -0.250000  0.333333      2.000000
  0.500000 -0.250000  0.333333      2.000000
 -0.250000 -0.250000  0.333333      2.000000
  0.000000  0.000000  0.500000      1.000000
  0.250000  0.000000  0.500000      2.000000
  0.500000  0.000000  0.500000      1.000000
  0.000000  0.250000  0.500000      2.000000
  0.250000  0.250000  0.500000      2.000000
  0.500000  0.250000  0.500000      2.000000
 -0.250000  0.250000  0.500000      2.000000
  0.000000  0.500000  0.500000      1.000000
  0.250000  0.500000  0.500000      2.000000
  0.500000  0.500000  0.500000      1.000000
 
 Following cartesian coordinates:
            Coordinates               Weight
  0.000000  0.000000  0.000000      1.000000
  0.029520  0.000000  0.000000      2.000000
  0.059040  0.000000  0.000000      1.000000
  0.000000  0.029520  0.000000      2.000000
  0.029520  0.029520  0.000000      2.000000
  0.059040  0.029520  0.000000      2.000000
 -0.029520  0.029520 -0.000000      2.000000
  0.000000  0.059040  0.000000      1.000000
  0.029520  0.059040  0.000000      2.000000
  0.059040  0.059040  0.000000      1.000000
  0.000000  0.000000  0.031013      2.000000
  0.029520  0.000000  0.031013      2.000000
  0.059040  0.000000  0.031013      2.000000
 -0.029520 -0.000000  0.031013      2.000000
  0.000000  0.029520  0.031013      2.000000
  0.029520  0.029520  0.031013      2.000000
  0.059040  0.029520  0.031013      2.000000
 -0.029520  0.029520  0.031013      2.000000
  0.000000  0.059040  0.031013      2.000000
  0.029520  0.059040  0.031013      2.000000
  0.059040  0.059040  0.031013      2.000000
 -0.029520  0.059040  0.031013      2.000000
  0.000000 -0.029520  0.031013      2.000000
  0.029520 -0.029520  0.031013      2.000000
  0.059040 -0.029520  0.031013      2.000000
 -0.029520 -0.029520  0.031013      2.000000
  0.000000  0.000000  0.062026      2.000000
  0.029520  0.000000  0.062026      2.000000
  0.059040  0.000000  0.062026      2.000000
 -0.029520 -0.000000  0.062026      2.000000
  0.000000  0.029520  0.062026      2.000000
  0.029520  0.029520  0.062026      2.000000
  0.059040  0.029520  0.062026      2.000000
 -0.029520  0.029520  0.062026      2.000000
  0.000000  0.059040  0.062026      2.000000
  0.029520  0.059040  0.062026      2.000000
  0.059040  0.059040  0.062026      2.000000
 -0.029520  0.059040  0.062026      2.000000
  0.000000 -0.029520  0.062026      2.000000
  0.029520 -0.029520  0.062026      2.000000
  0.059040 -0.029520  0.062026      2.000000
 -0.029520 -0.029520  0.062026      2.000000
  0.000000  0.000000  0.093039      1.000000
  0.029520  0.000000  0.093039      2.000000
  0.059040  0.000000  0.093039      1.000000
  0.000000  0.029520  0.093039      2.000000
  0.029520  0.029520  0.093039      2.000000
  0.059040  0.029520  0.093039      2.000000
 -0.029520  0.029520  0.093039      2.000000
  0.000000  0.059040  0.093039      1.000000
  0.029520  0.059040  0.093039      2.000000
  0.059040  0.059040  0.093039      1.000000
 


--------------------------------------------------------------------------------------------------------




 Dimension of arrays:
   k-points           NKPTS =     52   k-points in BZ     NKDIM =     52   number of bands    NBANDS=     96
   number of dos      NEDOS =    301   number of ions     NIONS =     20
   non local maximal  LDIM  =      6   non local SUM 2l+1 LMDIM =     18
   total plane-waves  NPLWV =  93312
   max r-space proj   IRMAX =      1   max aug-charges    IRDMAX= 107671
   dimension x,y,z NGX =    54 NGY =   54 NGZ =   32
   dimension x,y,z NGXF=   108 NGYF=  108 NGZF=   64
   support grid    NGXF=   216 NGYF=  216 NGZF=  128
   ions per type =               2  10   8
 NGX,Y,Z   is equivalent  to a cutoff of  10.60, 10.60,  9.90 a.u.
 NGXF,Y,Z  is equivalent  to a cutoff of  21.20, 21.20, 19.80 a.u.


 I would recommend the setting:
   dimension x,y,z NGX =    51 NGY =   51 NGZ =   32
 SYSTEM =  New structure                           
 POSCAR =  New structure                           

 Startparameter for this run:
   NWRITE =      2    write-flag & timer
   PREC   = accura    normal or accurate (medium, high low for compatibility)
   ISTART =      1    job   : 0-new  1-cont  2-samecut
   ICHARG =      0    charge: 1-file 2-atom 10-const
   ISPIN  =      1    spin polarized calculation?
   LNONCOLLINEAR =      F non collinear calculations
   LSORBIT =      F    spin-orbit coupling
   INIWAV =      1    electr: 0-lowe 1-rand  2-diag
   LASPH  =      F    aspherical Exc in radial PAW
   METAGGA=      F    non-selfconsistent MetaGGA calc.

 Electronic Relaxation 1
   ENCUT  =  340.0 eV  24.99 Ry    5.00 a.u.  12.73 12.73  8.08*2*pi/ulx,y,z
   ENINI  =  340.0     initial cutoff
   ENAUG  =  516.5 eV  augmentation charge cutoff
   NELM   =     60;   NELMIN=  2; NELMDL=  0     # of ELM steps 
   EDIFF  = 0.1E-05   stopping-criterion for ELM
   LREAL  =      F    real-space projection
   NLSPLINE    = F    spline interpolate recip. space projectors
   LCOMPAT=      F    compatible to vasp.4.4
   GGA_COMPAT  = T    GGA compatible to vasp.4.4-vasp.4.6
   LMAXPAW     = -100 max onsite density
   LMAXMIX     =    4 max onsite mixed and CHGCAR
   VOSKOWN=      0    Vosko Wilk Nusair interpolation
   ROPT   =    0.00000   0.00000   0.00000
 Ionic relaxation
   EDIFFG = -.5E-01   stopping-criterion for IOM
   NSW    =      0    number of steps for IOM
   NBLOCK =      1;   KBLOCK =      1    inner block; outer block 
   IBRION =     -1    ionic relax: 0-MD 1-quasi-New 2-CG
   NFREE  =      0    steps in history (QN), initial steepest desc. (CG)
   ISIF   =      2    stress and relaxation
   IWAVPR =     10    prediction:  0-non 1-charg 2-wave 3-comb
   ISYM   =      0    0-nonsym 1-usesym 2-fastsym
   LCORR  =      T    Harris-Foulkes like correction to forces

   POTIM  = 0.5000    time-step for ionic-motion
   TEIN   =    0.0    initial temperature
   TEBEG  =    0.0;   TEEND  =   0.0 temperature during run
   SMASS  =  -3.00    Nose mass-parameter (am)
   estimated Nose-frequenzy (Omega)   =  0.10E-29 period in steps =****** mass=  -0.164E-26a.u.
   SCALEE = 1.0000    scale energy and forces
   NPACO  =    256;   APACO  = 16.0  distance and # of slots for P.C.
   PSTRESS=    0.0 pullay stress

  Mass of Ions in am
   POMASS = 121.75 32.07 63.55
  Ionic Valenz
   ZVAL   =   5.00  6.00 11.00
  Atomic Wigner-Seitz radii
   RWIGS  =  -1.00 -1.00 -1.00
  virtual crystal weights 
   VCA    =   1.00  1.00  1.00
   NELECT =     158.0000    total number of electrons
   NUPDOWN=      -1.0000    fix difference up-down

 DOS related values:
   EMIN   =  10.00;   EMAX   =-10.00  energy-range for DOS
   EFERMI =   0.00
   ISMEAR =     0;   SIGMA  =   0.01  broadening in eV -4-tet -1-fermi 0-gaus

 Electronic relaxation 2 (details)
   IALGO  =     68    algorithm
   LDIAG  =      T    sub-space diagonalisation (order eigenvalues)
   LSUBROT=      T    optimize rotation matrix (better conditioning)
   TURBO    =      0    0=normal 1=particle mesh
   IRESTART =      0    0=no restart 2=restart with 2 vectors
   NREBOOT  =      0    no. of reboots
   NMIN     =      0    reboot dimension
   EREF     =   0.00    reference energy to select bands
   IMIX   =      4    mixing-type and parameters
     AMIX     =   0.40;   BMIX     =  1.00
     AMIX_MAG =   1.60;   BMIX_MAG =  1.00
     AMIN     =   0.10
     WC   =   100.;   INIMIX=   1;  MIXPRE=   1

 Intra band minimization:
   WEIMIN = 0.0000     energy-eigenvalue tresh-hold
   EBREAK =  0.26E-08  absolut break condition
   DEPER  =   0.30     relativ break condition  

   TIME   =   0.40     timestep for ELM

  volume/ion in A,a.u.               =      19.2716       130.0515
  Fermi-wavevector in a.u.,A,eV,Ry     =   1.216123  2.298140 20.122418  1.478956
  Thomas-Fermi vector in A             =   2.351488
 
 Write flags
   LWAVE  =      T    write WAVECAR
   LCHARG =      T    write CHGCAR
   LVTOT  =      F    write LOCPOT, total local potential
   LVHAR  =      F    write LOCPOT, Hartree potential only
   LELF   =      F    write electronic localiz. function (ELF)
   LORBIT =     11    0 simple, 1 ext, 2 COOP (PROOUT)


 Dipole corrections
   LMONO  =      F    monopole corrections only (constant potential shift)
   LDIPOL =      F    correct potential (dipole corrections)
   IDIPOL =      0    1-x, 2-y, 3-z, 4-all directions 
   EPSILON=  1.0000000 bulk dielectric constant

 LDA+U is selected, type is set to LDAUTYPE =  2
   angular momentum for each species, LDAU#  1 :   L =      -1     -1      2
   U (eV)           for each species, LDAU#  1 :   U =    0.00   0.00   5.00
   J (eV)           for each species, LDAU#  1 :   J =    0.00   0.00   0.00
   nlep             for each species, LDAU#  1 :   O =       1      1      1
   angular momentum for each species, LDAU#  2 :   L =      -1     -1     -1
   U (eV)           for each species, LDAU#  2 :   U =    0.00   0.00   0.00
   J (eV)           for each species, LDAU#  2 :   J =    0.00   0.00   0.00
   nlep             for each species, LDAU#  2 :   O =       1      1      1
   angular momentum for each species, LDAU#  3 :   L =      -1     -1     -1
   U (eV)           for each species, LDAU#  3 :   U =    0.00   0.00   0.00
   J (eV)           for each species, LDAU#  3 :   J =    0.00   0.00   0.00
   nlep             for each species, LDAU#  3 :   O =       1      1      1
   angular momentum for each species, LDAU#  4 :   L =      -1     -1     -1
   U (eV)           for each species, LDAU#  4 :   U =    0.00   0.00   0.00
   J (eV)           for each species, LDAU#  4 :   J =    0.00   0.00   0.00
   nlep             for each species, LDAU#  4 :   O =       1      1      1
 Exchange correlation treatment:
   GGA     =    --    GGA type
   LEXCH   =     8    internal setting for exchange type
   VOSKOWN=      0    Vosko Wilk Nusair interpolation
   LHFCALC =     F    Hartree Fock is set to
   LHFONE  =     F    Hartree Fock one center treatment
   AEXX    =    0.0000 exact exchange contribution

 Linear response parameters
   LEPSILON=     F    determine dielectric tensor
   LRPA    =     F    only Hartree local field effects (RPA)
   LNABLA  =     F    use nabla operator in PAW spheres
   LVEL    =     F    velocity operator in full k-point grid
   LINTERFAST=   F  fast interpolation
   KINTER  =     0    interpolate to denser k-point grid
   CSHIFT  =0.1000    complex shift for real part using Kramers Kronig
   OMEGAMAX=  -1.0    maximum frequency
   RTIME   =    0.100 relaxation time in fs

 Orbital magnetization related:
   ORBITALMAG=     F  switch on orbital magnetization
   LCHIMAG   =     F  perturbation theory with respect to B field
   DQ        =  0.001000  dq finite difference perturbation B field



--------------------------------------------------------------------------------------------------------


 Static calculation
 charge density and potential will be updated during run
 non-spin polarized calculation
 RMM-DIIS sequential band-by-band and
  variant of blocked Davidson during initial phase
 perform sub-space diagonalisation
    before iterative eigenvector-optimisation
 modified Broyden-mixing scheme, WC =      100.0
 initial mixing is a Kerker type mixing with AMIX =  0.4000 and BMIX =      1.0000
 Hartree-type preconditioning will be used
 using additional bands           17
 reciprocal scheme for non local part
 use partial core corrections
 calculate Harris-corrections to forces 
   (improved forces if not selfconsistent)
 use gradient corrections 
 use of overlap-Matrix (Vanderbilt PP)
 Gauss-broadening in eV      SIGMA  =   0.01


--------------------------------------------------------------------------------------------------------


  energy-cutoff  :      340.00
  volume of cell :      385.4328
      direct lattice vectors                 reciprocal lattice vectors
     8.468780064 -0.000000941 -0.000001905     0.118080762  0.000000072  0.000000020
    -0.000005144  8.468779255 -0.000000984     0.000000013  0.118080773  0.000000005
    -0.000000922 -0.000000235  5.374116066     0.000000042  0.000000022  0.186077113

  length of vectors
     8.468780064  8.468779255  5.374116066     0.118080762  0.118080773  0.186077113


 
 old parameters found on file WAVECAR:
  energy-cutoff  :      340.00
  volume of cell :      385.4328
      direct lattice vectors                 reciprocal lattice vectors
     8.468780064 -0.000000941 -0.000001905     0.118080762  0.000000072  0.000000020
    -0.000005144  8.468779255 -0.000000984     0.000000013  0.118080773  0.000000005
    -0.000000922 -0.000000235  5.374116066     0.000000042  0.000000022  0.186077113

  length of vectors

 
 k-points in units of 2pi/SCALE and weight:                                         
   0.00000000  0.00000000  0.00000000       0.010
   0.02952019  0.00000002  0.00000001       0.021
   0.05904038  0.00000004  0.00000001       0.010
   0.00000000  0.02952019  0.00000000       0.021
   0.02952019  0.02952021  0.00000001       0.021
   0.05904038  0.02952023  0.00000001       0.021
  -0.02952019  0.02952018 -0.00000000       0.021
   0.00000001  0.05904039  0.00000000       0.010
   0.02952020  0.05904040  0.00000001       0.021
   0.05904039  0.05904042  0.00000001       0.010
   0.00000001  0.00000000  0.03101285       0.021
   0.02952020  0.00000002  0.03101286       0.021
   0.05904039  0.00000004  0.03101286       0.021
  -0.02952018 -0.00000001  0.03101285       0.021
   0.00000001  0.02952020  0.03101285       0.021
   0.02952020  0.02952021  0.03101286       0.021
   0.05904039  0.02952023  0.03101286       0.021
  -0.02952018  0.02952018  0.03101285       0.021
   0.00000001  0.05904039  0.03101285       0.021
   0.02952020  0.05904041  0.03101286       0.021
   0.05904039  0.05904043  0.03101286       0.021
  -0.02952018  0.05904037  0.03101285       0.021
   0.00000000 -0.02952019  0.03101285       0.021
   0.02952019 -0.02952017  0.03101286       0.021
   0.05904038 -0.02952015  0.03101286       0.021
  -0.02952019 -0.02952021  0.03101285       0.021
   0.00000001  0.00000001  0.06202570       0.021
   0.02952020  0.00000003  0.06202571       0.021
   0.05904039  0.00000004  0.06202571       0.021
  -0.02952018 -0.00000001  0.06202570       0.021
   0.00000002  0.02952020  0.06202571       0.021
   0.02952021  0.02952022  0.06202571       0.021
   0.05904040  0.02952024  0.06202572       0.021
  -0.02952017  0.02952018  0.06202570       0.021
   0.00000002  0.05904039  0.06202571       0.021
   0.02952021  0.05904041  0.06202571       0.021
   0.05904040  0.05904043  0.06202572       0.021
  -0.02952017  0.05904038  0.06202570       0.021
   0.00000001 -0.02952019  0.06202570       0.021
   0.02952020 -0.02952017  0.06202571       0.021
   0.05904039 -0.02952015  0.06202571       0.021
  -0.02952018 -0.02952020  0.06202570       0.021
   0.00000002  0.00000001  0.09303856       0.010
   0.02952021  0.00000003  0.09303856       0.021
   0.05904040  0.00000005  0.09303857       0.010
   0.00000002  0.02952020  0.09303856       0.021
   0.02952021  0.02952022  0.09303856       0.021
   0.05904041  0.02952024  0.09303857       0.021
  -0.02952017  0.02952019  0.09303855       0.021
   0.00000003  0.05904040  0.09303856       0.010
   0.02952022  0.05904042  0.09303856       0.021
   0.05904041  0.05904043  0.09303857       0.010
 
 k-points in reciprocal lattice and weights:                                         
   0.00000000  0.00000000  0.00000000       0.010
   0.25000000  0.00000000  0.00000000       0.021
   0.50000000  0.00000000  0.00000000       0.010
   0.00000000  0.25000000  0.00000000       0.021
   0.25000000  0.25000000  0.00000000       0.021
   0.50000000  0.25000000  0.00000000       0.021
  -0.25000000  0.25000000  0.00000000       0.021
   0.00000000  0.50000000  0.00000000       0.010
   0.25000000  0.50000000  0.00000000       0.021
   0.50000000  0.50000000  0.00000000       0.010
   0.00000000  0.00000000  0.16666667       0.021
   0.25000000  0.00000000  0.16666667       0.021
   0.50000000  0.00000000  0.16666667       0.021
  -0.25000000  0.00000000  0.16666667       0.021
   0.00000000  0.25000000  0.16666667       0.021
   0.25000000  0.25000000  0.16666667       0.021
   0.50000000  0.25000000  0.16666667       0.021
  -0.25000000  0.25000000  0.16666667       0.021
   0.00000000  0.50000000  0.16666667       0.021
   0.25000000  0.50000000  0.16666667       0.021
   0.50000000  0.50000000  0.16666667       0.021
  -0.25000000  0.50000000  0.16666667       0.021
   0.00000000 -0.25000000  0.16666667       0.021
   0.25000000 -0.25000000  0.16666667       0.021
   0.50000000 -0.25000000  0.16666667       0.021
  -0.25000000 -0.25000000  0.16666667       0.021
   0.00000000  0.00000000  0.33333333       0.021
   0.25000000  0.00000000  0.33333333       0.021
   0.50000000  0.00000000  0.33333333       0.021
  -0.25000000  0.00000000  0.33333333       0.021
   0.00000000  0.25000000  0.33333333       0.021
   0.25000000  0.25000000  0.33333333       0.021
   0.50000000  0.25000000  0.33333333       0.021
  -0.25000000  0.25000000  0.33333333       0.021
   0.00000000  0.50000000  0.33333333       0.021
   0.25000000  0.50000000  0.33333333       0.021
   0.50000000  0.50000000  0.33333333       0.021
  -0.25000000  0.50000000  0.33333333       0.021
   0.00000000 -0.25000000  0.33333333       0.021
   0.25000000 -0.25000000  0.33333333       0.021
   0.50000000 -0.25000000  0.33333333       0.021
  -0.25000000 -0.25000000  0.33333333       0.021
   0.00000000  0.00000000  0.50000000       0.010
   0.25000000  0.00000000  0.50000000       0.021
   0.50000000  0.00000000  0.50000000       0.010
   0.00000000  0.25000000  0.50000000       0.021
   0.25000000  0.25000000  0.50000000       0.021
   0.50000000  0.25000000  0.50000000       0.021
  -0.25000000  0.25000000  0.50000000       0.021
   0.00000000  0.50000000  0.50000000       0.010
   0.25000000  0.50000000  0.50000000       0.021
   0.50000000  0.50000000  0.50000000       0.010
 
 position of ions in fractional coordinates (direct lattice) 
   0.00000014  0.50000008  0.75000031
   0.50000001  0.99999991  0.24999976
   0.10439322  0.71049278  0.48689050
   0.89560654  0.28950713  0.48689048
   0.71049286  0.89560721  0.51310954
   0.28950716  0.10439295  0.51310950
   0.60439699  0.21048853  0.98688899
   0.39560310  0.78951155  0.98688907
   0.21048845  0.39560343  0.01311103
   0.78951148  0.60439641  0.01311124
   0.99999990  0.00000015  0.99999961
   0.50000013  0.49999980  0.49999949
   0.69319999  0.40253960  0.25936668
   0.30679988  0.59746050  0.25936661
   0.40253953  0.30679992  0.74063347
   0.59746049  0.69320018  0.74063348
   0.19319996  0.90253976  0.75936688
   0.80680012  0.09746013  0.75936692
   0.90253980  0.80680006  0.24063329
   0.09746026  0.19319993  0.24063314
 
 position of ions in cartesian coordinates  (Angst):
  -0.00000210  4.23439017  4.03058823
   4.23438475  8.46877800  1.34352577
   0.88407912  6.01700629  2.61660518
   7.58469284  2.45177100  2.61660396
   6.01700266  7.58469894  2.75750799
   2.45177144  0.88408046  2.75750933
   5.11850320  1.78258012  5.30365463
   3.35027071  6.68619846  5.30365489
   1.78257834  3.35027792  0.07045942
   6.68619595  5.11849902  0.07045922
   8.46877832  0.00000009  5.37411206
   4.23438809  4.23438736  2.68705387
   5.87055593  3.40901827  1.39386490
   2.59821741  5.05976071  1.39386509
   3.40901650  2.59822026  3.98024916
   5.05975728  5.87055856  3.98024844
   1.63616262  7.64340964  4.08092449
   6.83261160  0.82536741  4.08092433
   7.64340665  6.83261067  1.29318874
   0.82536828  1.63616741  1.29319007
 


--------------------------------------------------------------------------------------------------------


 k-point  1 :  0.00000.00000.0000  plane waves:    5469
 k-point  2 :  0.25000.00000.0000  plane waves:    5471
 k-point  3 :  0.50000.00000.0000  plane waves:    5482
 k-point  4 :  0.00000.25000.0000  plane waves:    5471
 k-point  5 :  0.25000.25000.0000  plane waves:    5474
 k-point  6 :  0.50000.25000.0000  plane waves:    5478
 k-point  7 :  -.25000.25000.0000  plane waves:    5474
 k-point  8 :  0.00000.50000.0000  plane waves:    5482
 k-point  9 :  0.25000.50000.0000  plane waves:    5478
 k-point 10 :  0.50000.50000.0000  plane waves:    5444
 k-point 11 :  0.00000.00000.1667  plane waves:    5492
 k-point 12 :  0.25000.00000.1667  plane waves:    5476
 k-point 13 :  0.50000.00000.1667  plane waves:    5480
 k-point 14 :  -.25000.00000.1667  plane waves:    5476
 k-point 15 :  0.00000.25000.1667  plane waves:    5476
 k-point 16 :  0.25000.25000.1667  plane waves:    5466
 k-point 17 :  0.50000.25000.1667  plane waves:    5502
 k-point 18 :  -.25000.25000.1667  plane waves:    5466
 k-point 19 :  0.00000.50000.1667  plane waves:    5480
 k-point 20 :  0.25000.50000.1667  plane waves:    5502
 k-point 21 :  0.50000.50000.1667  plane waves:    5480
 k-point 22 :  -.25000.50000.1667  plane waves:    5502
 k-point 23 :  0.0000-.25000.1667  plane waves:    5476
 k-point 24 :  0.2500-.25000.1667  plane waves:    5466
 k-point 25 :  0.5000-.25000.1667  plane waves:    5502
 k-point 26 :  -.2500-.25000.1667  plane waves:    5466
 k-point 27 :  0.00000.00000.3333  plane waves:    5480
 k-point 28 :  0.25000.00000.3333  plane waves:    5492
 k-point 29 :  0.50000.00000.3333  plane waves:    5512
 k-point 30 :  -.25000.00000.3333  plane waves:    5492
 k-point 31 :  0.00000.25000.3333  plane waves:    5492
 k-point 32 :  0.25000.25000.3333  plane waves:    5492
 k-point 33 :  0.50000.25000.3333  plane waves:    5478
 k-point 34 :  -.25000.25000.3333  plane waves:    5492
 k-point 35 :  0.00000.50000.3333  plane waves:    5512
 k-point 36 :  0.25000.50000.3333  plane waves:    5478
 k-point 37 :  0.50000.50000.3333  plane waves:    5476
 k-point 38 :  -.25000.50000.3333  plane waves:    5478
 k-point 39 :  0.0000-.25000.3333  plane waves:    5492
 k-point 40 :  0.2500-.25000.3333  plane waves:    5492
 k-point 41 :  0.5000-.25000.3333  plane waves:    5478
 k-point 42 :  -.2500-.25000.3333  plane waves:    5492
 k-point 43 :  0.00000.00000.5000  plane waves:    5504
 k-point 44 :  0.25000.00000.5000  plane waves:    5510
 k-point 45 :  0.50000.00000.5000  plane waves:    5512
 k-point 46 :  0.00000.25000.5000  plane waves:    5510
 k-point 47 :  0.25000.25000.5000  plane waves:    5498
 k-point 48 :  0.50000.25000.5000  plane waves:    5476
 k-point 49 :  -.25000.25000.5000  plane waves:    5498
 k-point 50 :  0.00000.50000.5000  plane waves:    5512
 k-point 51 :  0.25000.50000.5000  plane waves:    5476
 k-point 52 :  0.50000.50000.5000  plane waves:    5480

 maximum and minimum number of plane-waves per node :      5512     5444

 maximum number of plane-waves:      5512
 maximum index in each direction: 
   IXMAX=   12   IYMAX=   12   IZMAX=    8
   IXMIN=  -13   IYMIN=  -13   IZMIN=   -8

 NGX is ok and might be reduce to  52
 NGY is ok and might be reduce to  52
 WARNING: aliasing errors must be expected set NGZ to  34 to avoid them
 aliasing errors are usually negligible using standard VASP settings
 and one can safely disregard these warnings

 serial   3D FFT for wavefunctions
 parallel 3D FFT for charge:
    minimum data exchange during FFTs selected (reduces bandwidth)


 total amount of memory used by VASP on root node   186448. kBytes
========================================================================

   base      :      30000. kBytes
   nonl-proj :     125767. kBytes
   fftplans  :       5079. kBytes
   grid      :       6042. kBytes
   one-center:        311. kBytes
   wavefun   :      19249. kBytes
 
 Broyden mixing: mesh for mixing (old mesh)
   NGX = 25   NGY = 25   NGZ = 17
  (NGX  =108   NGY  =108   NGZ  = 64)
  gives a total of  10625 points

 charge density for first step will be calculated from the start-wavefunctions


--------------------------------------------------------------------------------------------------------


 Maximum index for augmentation-charges         4455 (set IRDMAX)


--------------------------------------------------------------------------------------------------------


 initial charge from wavefunction
 First call to EWALD:  gamma=   0.244
 Maximum number of real-space cells 2x 2x 4
 Maximum number of reciprocal cells 3x 3x 2

    FEWALD:  cpu time    0.00: real time    0.00


----------------------------------------- Iteration    1(   1)  ---------------------------------------


    POTLOK:  cpu time    0.04: real time    0.07
    SETDIJ:  cpu time    0.04: real time    0.09
     EDDAV:  cpu time   15.79: real time   24.25
       DOS:  cpu time    0.00: real time    0.01
    CHARGE:  cpu time    1.05: real time    1.72
    MIXING:  cpu time    0.00: real time    0.01
    --------------------------------------------
      LOOP:  cpu time   16.93: real time   26.16

 eigenvalue-minimisations  : 10992
 total energy-change (2. order) :-0.7072361E+02  (-0.2352288E-05)
 number of electron     157.9999999 magnetization 
 augmentation part       48.6481069 magnetization 

 Broyden mixing:
  rms(total) = 0.12328E-02    rms(broyden)= 0.12102E-02
  rms(prec ) = 0.24253E-02
  weight for this iteration     100.00

 Free energy of the ion-electron system (eV)
  ---------------------------------------------------
  alpha Z        PSCENC =       474.22880034
  Ewald energy   TEWEN  =     -9465.47480842
  -1/2 Hartree   DENC   =     -4691.77018552
  -exchange  EXHF       =         0.00000000
  -V(xc)+E(xc)   XCENC  =       379.19795442
  PAW double counting   =     10244.16262017   -11092.89546671
  entropy T*S    EENTRO =        -0.00099696
  eigenvalues    EBANDS =      -113.56744670
  atomic energy  EATOM  =     14195.39591442
  ---------------------------------------------------
  free energy    TOTEN  =       -70.72361496 eV

  energy without entropy =      -70.72261800  energy(sigma->0) =      -70.72311648


--------------------------------------------------------------------------------------------------------




----------------------------------------- Iteration    1(   2)  ---------------------------------------


    POTLOK:  cpu time    0.03: real time    0.07
    SETDIJ:  cpu time    0.05: real time    0.07
    EDDIAG:  cpu time    3.50: real time    4.94
  RMM-DIIS:  cpu time    9.45: real time   13.81
    ORTHCH:  cpu time    0.21: real time    0.31
       DOS:  cpu time    0.00: real time    0.01
    CHARGE:  cpu time    1.05: real time    1.37
    MIXING:  cpu time    0.01: real time    0.01
    --------------------------------------------
      LOOP:  cpu time   14.30: real time   20.59

 eigenvalue-minimisations  : 10478
 total energy-change (2. order) :-0.8408726E-05  (-0.4867238E-05)
 number of electron     157.9999999 magnetization 
 augmentation part       48.6476497 magnetization 

 Broyden mixing:
  rms(total) = 0.24906E-02    rms(broyden)= 0.24785E-02
  rms(prec ) = 0.45172E-02
  weight for this iteration     100.00

 eigenvalues of (default mixing * dielectric matrix)
  average eigenvalue GAMMA=   0.3241
  0.3241

 Free energy of the ion-electron system (eV)
  ---------------------------------------------------
  alpha Z        PSCENC =       474.22880034
  Ewald energy   TEWEN  =     -9465.47480842
  -1/2 Hartree   DENC   =     -4691.78492156
  -exchange  EXHF       =         0.00000000
  -V(xc)+E(xc)   XCENC  =       379.19849915
  PAW double counting   =     10244.18819102   -11092.92792717
  entropy T*S    EENTRO =        -0.00099559
  eigenvalues    EBANDS =      -113.54637556
  atomic energy  EATOM  =     14195.39591442
  ---------------------------------------------------
  free energy    TOTEN  =       -70.72362337 eV

  energy without entropy =      -70.72262778  energy(sigma->0) =      -70.72312558


--------------------------------------------------------------------------------------------------------




----------------------------------------- Iteration    1(   3)  ---------------------------------------


    POTLOK:  cpu time    0.03: real time    0.06
    SETDIJ:  cpu time    0.05: real time    0.07
    EDDIAG:  cpu time    3.60: real time    4.92
  RMM-DIIS:  cpu time    9.65: real time   13.62
    ORTHCH:  cpu time    0.21: real time    0.32
       DOS:  cpu time    0.00: real time    0.00
    CHARGE:  cpu time    1.53: real time    1.69
    MIXING:  cpu time    0.01: real time    0.01
    --------------------------------------------
      LOOP:  cpu time   15.09: real time   20.69

 eigenvalue-minimisations  :  9784
 total energy-change (2. order) : 0.1196998E-04  (-0.2293972E-05)
 number of electron     157.9999999 magnetization 
 augmentation part       48.6477591 magnetization 

 Broyden mixing:
  rms(total) = 0.29004E-03    rms(broyden)= 0.16804E-03
  rms(prec ) = 0.29278E-03
  weight for this iteration     100.00
  WARNING: grid for Broyden might be to small

 eigenvalues of (default mixing * dielectric matrix)
  average eigenvalue GAMMA=   0.4160
  0.4843  0.3477

 Free energy of the ion-electron system (eV)
  ---------------------------------------------------
  alpha Z        PSCENC =       474.22880034
  Ewald energy   TEWEN  =     -9465.47480842
  -1/2 Hartree   DENC   =     -4691.78140183
  -exchange  EXHF       =         0.00000000
  -V(xc)+E(xc)   XCENC  =       379.19834520
  PAW double counting   =     10244.18209870   -11092.92040783
  entropy T*S    EENTRO =        -0.00099752
  eigenvalues    EBANDS =      -113.55115445
  atomic energy  EATOM  =     14195.39591442
  ---------------------------------------------------
  free energy    TOTEN  =       -70.72361140 eV

  energy without entropy =      -70.72261388  energy(sigma->0) =      -70.72311264


--------------------------------------------------------------------------------------------------------




----------------------------------------- Iteration    1(   4)  ---------------------------------------


    POTLOK:  cpu time    0.03: real time    0.07
    SETDIJ:  cpu time    0.08: real time    0.08
    EDDIAG:  cpu time    3.55: real time    4.87
  RMM-DIIS:  cpu time    6.88: real time   10.49
    ORTHCH:  cpu time    0.23: real time    0.32
       DOS:  cpu time    0.00: real time    0.00
    --------------------------------------------
      LOOP:  cpu time   10.78: real time   15.84

 eigenvalue-minimisations  :  5629
 total energy-change (2. order) : 0.1923763E-07  (-0.4169741E-07)
 number of electron     157.9999999 magnetization 
 augmentation part       48.6477591 magnetization 

 Free energy of the ion-electron system (eV)
  ---------------------------------------------------
  alpha Z        PSCENC =       474.22880034
  Ewald energy   TEWEN  =     -9465.47480842
  -1/2 Hartree   DENC   =     -4691.77850449
  -exchange  EXHF       =         0.00000000
  -V(xc)+E(xc)   XCENC  =       379.19820583
  PAW double counting   =     10244.17730444   -11092.91451902
  entropy T*S    EENTRO =        -0.00099756
  eigenvalues    EBANDS =      -113.55500691
  atomic energy  EATOM  =     14195.39591442
  ---------------------------------------------------
  free energy    TOTEN  =       -70.72361138 eV

  energy without entropy =      -70.72261383  energy(sigma->0) =      -70.72311261


--------------------------------------------------------------------------------------------------------




 average (electrostatic) potential at core
  the test charge radii are     1.1712  0.9698  1.0053
  (the norm of the test charge is              1.0000)
      1  -90.2758      2  -90.2758      3  -88.0838      4  -88.0838      5  -88.0838
      6  -88.0838      7  -88.0839      8  -88.0838      9  -88.0838     10  -88.0838
     11  -87.1250     12  -87.1250     13  -37.9547     14  -37.9546     15  -37.9546
     16  -37.9545     17  -37.9548     18  -37.9550     19  -37.9548     20  -37.9548
 
 
 
 E-fermi :   3.7942     XC(G=0):  -9.8750     alpha+bet : -9.5312


 k-point   1 :       0.0000    0.0000    0.0000
  band No.  band energies     occupation 
      1     -10.7250      2.00000
      2     -10.2782      2.00000
      3      -9.4517      2.00000
      4      -9.4517      2.00000
      5      -9.1828      2.00000
      6      -9.1257      2.00000
      7      -9.1238      2.00000
      8      -9.1238      2.00000
      9      -8.4327      2.00000
     10      -8.3985      2.00000
     11      -5.3205      2.00000
     12      -5.1629      2.00000
     13      -1.6111      2.00000
     14      -1.6111      2.00000
     15      -1.5862      2.00000
     16      -1.5849      2.00000
     17      -1.3934      2.00000
     18      -1.2115      2.00000
     19      -1.2115      2.00000
     20      -0.8343      2.00000
     21      -0.8342      2.00000
     22      -0.8338      2.00000
     23      -0.8338      2.00000
     24      -0.6717      2.00000
     25      -0.5851      2.00000
     26      -0.5235      2.00000
     27      -0.4916      2.00000
     28      -0.4645      2.00000
     29      -0.4644      2.00000
     30      -0.3465      2.00000
     31      -0.3044      2.00000
     32      -0.3013      2.00000
     33      -0.3013      2.00000
     34      -0.2507      2.00000
     35      -0.2409      2.00000
     36      -0.1978      2.00000
     37      -0.0399      2.00000
     38      -0.0399      2.00000
     39       0.0035      2.00000
     40       0.0035      2.00000
     41       0.5896      2.00000
     42       0.7557      2.00000
     43       0.8124      2.00000
     44       0.8125      2.00000
     45       0.8222      2.00000
     46       0.8385      2.00000
     47       0.8431      2.00000
     48       0.8555      2.00000
     49       0.8799      2.00000
     50       0.9199      2.00000
     51       0.9200      2.00000
     52       0.9390      2.00000
     53       0.9390      2.00000
     54       0.9645      2.00000
     55       1.0760      2.00000
     56       1.0761      2.00000
     57       1.1224      2.00000
     58       1.3280      2.00000
     59       1.3563      2.00000
     60       1.4445      2.00000
     61       1.4445      2.00000
     62       1.5183      2.00000
     63       1.6410      2.00000
     64       1.8831      2.00000
     65       1.8975      2.00000
     66       1.8975      2.00000
     67       2.0991      2.00000
     68       2.0992      2.00000
     69       2.2672      2.00000
     70       2.2941      2.00000
     71       2.3304      2.00000
     72       2.3304      2.00000
     73       2.6827      2.00000
     74       2.6868      2.00000
     75       2.9353      2.00000
     76       3.0231      2.00000
     77       3.0231      2.00000
     78       4.1137      0.00000
     79       4.1723      0.00000
     80       4.1971      0.00000
     81       4.1971      0.00000
     82       4.7576      0.00000
     83       5.9415      0.00000
     84       6.3074      0.00000
     85       6.3074      0.00000
     86       6.7591      0.00000
     87       6.7591      0.00000
     88       7.0386      0.00000
     89       7.7076      0.00000
     90       8.3987      0.00000
     91       8.6487      0.00000
     92       9.0119      0.00000
     93       9.0745      0.00000
     94       9.3979      0.00000
     95       9.4635      0.00000
     96       9.4635      0.00000

 k-point   2 :       0.2500    0.0000    0.0000
  band No.  band energies     occupation 
      1     -10.6715      2.00000
      2     -10.3598      2.00000
      3      -9.4310      2.00000
      4      -9.4110      2.00000
      5      -9.2339      2.00000
      6      -9.1833      2.00000
      7      -9.1363      2.00000
      8      -9.0660      2.00000
      9      -8.4098      2.00000
     10      -8.3809      2.00000
     11      -5.3016      2.00000
     12      -5.1905      2.00000
     13      -1.6187      2.00000
     14      -1.5966      2.00000
     15      -1.5299      2.00000
     16      -1.5172      2.00000
     17      -1.4088      2.00000
     18      -1.2385      2.00000
     19      -1.1151      2.00000
     20      -1.0103      2.00000
     21      -0.9613      2.00000
     22      -0.8576      2.00000
     23      -0.8340      2.00000
     24      -0.6129      2.00000
     25      -0.5438      2.00000
     26      -0.5249      2.00000
     27      -0.4759      2.00000
     28      -0.4648      2.00000
     29      -0.4592      2.00000
     30      -0.3933      2.00000
     31      -0.3298      2.00000
     32      -0.3156      2.00000
     33      -0.2692      2.00000
     34      -0.2438      2.00000
     35      -0.2306      2.00000
     36      -0.1968      2.00000
     37      -0.0601      2.00000
     38      -0.0519      2.00000
     39      -0.0228      2.00000
     40       0.0017      2.00000
     41       0.6100      2.00000
     42       0.7442      2.00000
     43       0.7790      2.00000
     44       0.7978      2.00000
     45       0.8164      2.00000
     46       0.8397      2.00000
     47       0.8447      2.00000
     48       0.8894      2.00000
     49       0.9001      2.00000
     50       0.9034      2.00000
     51       0.9128      2.00000
     52       0.9654      2.00000
     53       0.9695      2.00000
     54       0.9720      2.00000
     55       1.0770      2.00000
     56       1.0937      2.00000
     57       1.2409      2.00000
     58       1.2923      2.00000
     59       1.3271      2.00000
     60       1.4073      2.00000
     61       1.4389      2.00000
     62       1.5282      2.00000
     63       1.7078      2.00000
     64       1.8305      2.00000
     65       1.8817      2.00000
     66       1.9171      2.00000
     67       2.0616      2.00000
     68       2.0736      2.00000
     69       2.1499      2.00000
     70       2.2919      2.00000
     71       2.3489      2.00000
     72       2.4693      2.00000
     73       2.5364      2.00000
     74       2.6977      2.00000
     75       2.9967      2.00000
     76       3.2695      2.00000
     77       3.4223      2.00000
     78       3.5346      2.00000
     79       3.9723      0.00000
     80       4.0790      0.00000
     81       4.6117      0.00000
     82       4.7383      0.00000
     83       6.1503      0.00000
     84       6.2116      0.00000
     85       6.3556      0.00000
     86       6.5675      0.00000
     87       6.6379      0.00000
     88       6.9066      0.00000
     89       7.8630      0.00000
     90       8.5168      0.00000
     91       8.7360      0.00000
     92       8.9448      0.00000
     93       9.1471      0.00000
     94       9.1596      0.00000
     95       9.3211      0.00000
     96       9.4370      0.00000

 k-point   3 :       0.5000    0.0000    0.0000
  band No.  band energies     occupation 
      1     -10.5289      2.00000
      2     -10.5289      2.00000
      3      -9.3523      2.00000
      4      -9.3522      2.00000
      5      -9.3058      2.00000
      6      -9.3058      2.00000
      7      -9.0739      2.00000
      8      -9.0739      2.00000
      9      -8.3759      2.00000
     10      -8.3758      2.00000
     11      -5.2504      2.00000
     12      -5.2504      2.00000
     13      -1.6078      2.00000
     14      -1.6078      2.00000
     15      -1.4304      2.00000
     16      -1.4304      2.00000
     17      -1.3441      2.00000
     18      -1.3441      2.00000
     19      -1.1273      2.00000
     20      -1.1273      2.00000
     21      -0.9448      2.00000
     22      -0.9447      2.00000
     23      -0.7664      2.00000
     24      -0.7663      2.00000
     25      -0.4987      2.00000
     26      -0.4987      2.00000
     27      -0.4450      2.00000
     28      -0.4449      2.00000
     29      -0.3973      2.00000
     30      -0.3972      2.00000
     31      -0.3686      2.00000
     32      -0.3686      2.00000
     33      -0.3057      2.00000
     34      -0.3057      2.00000
     35      -0.1792      2.00000
     36      -0.1791      2.00000
     37      -0.0791      2.00000
     38      -0.0791      2.00000
     39      -0.0046      2.00000
     40      -0.0044      2.00000
     41       0.6704      2.00000
     42       0.6705      2.00000
     43       0.7997      2.00000
     44       0.7999      2.00000
     45       0.8302      2.00000
     46       0.8303      2.00000
     47       0.8610      2.00000
     48       0.8611      2.00000
     49       0.8958      2.00000
     50       0.8958      2.00000
     51       0.9517      2.00000
     52       0.9518      2.00000
     53       1.0147      2.00000
     54       1.0147      2.00000
     55       1.0617      2.00000
     56       1.0617      2.00000
     57       1.2389      2.00000
     58       1.2390      2.00000
     59       1.3998      2.00000
     60       1.3999      2.00000
     61       1.6063      2.00000
     62       1.6063      2.00000
     63       1.6624      2.00000
     64       1.6624      2.00000
     65       1.8962      2.00000
     66       1.8962      2.00000
     67       2.0457      2.00000
     68       2.0457      2.00000
     69       2.2203      2.00000
     70       2.2203      2.00000
     71       2.3250      2.00000
     72       2.3251      2.00000
     73       2.6909      2.00000
     74       2.6910      2.00000
     75       3.3213      2.00000
     76       3.3213      2.00000
     77       3.5342      2.00000
     78       3.5342      2.00000
     79       3.7959      0.80758
     80       3.7959      0.80504
     81       4.7261      0.00000
     82       4.7261      0.00000
     83       6.2470      0.00000
     84       6.2471      0.00000
     85       6.4700      0.00000
     86       6.4701      0.00000
     87       6.5702      0.00000
     88       6.5702      0.00000
     89       8.2384      0.00000
     90       8.2384      0.00000
     91       8.7528      0.00000
     92       8.7529      0.00000
     93       9.0819      0.00000
     94       9.0820      0.00000
     95       9.3080      0.00000
     96       9.3081      0.00000

 k-point   4 :       0.0000    0.2500    0.0000
  band No.  band energies     occupation 
      1     -10.6715      2.00000
      2     -10.3598      2.00000
      3      -9.4310      2.00000
      4      -9.4111      2.00000
      5      -9.2339      2.00000
      6      -9.1833      2.00000
      7      -9.1363      2.00000
      8      -9.0660      2.00000
      9      -8.4098      2.00000
     10      -8.3809      2.00000
     11      -5.3016      2.00000
     12      -5.1905      2.00000
     13      -1.6187      2.00000
     14      -1.5966      2.00000
     15      -1.5299      2.00000
     16      -1.5172      2.00000
     17      -1.4088      2.00000
     18      -1.2385      2.00000
     19      -1.1151      2.00000
     20      -1.0103      2.00000
     21      -0.9613      2.00000
     22      -0.8576      2.00000
     23      -0.8340      2.00000
     24      -0.6129      2.00000
     25      -0.5438      2.00000
     26      -0.5249      2.00000
     27      -0.4759      2.00000
     28      -0.4648      2.00000
     29      -0.4593      2.00000
     30      -0.3933      2.00000
     31      -0.3298      2.00000
     32      -0.3156      2.00000
     33      -0.2692      2.00000
     34      -0.2438      2.00000
     35      -0.2306      2.00000
     36      -0.1968      2.00000
     37      -0.0601      2.00000
     38      -0.0519      2.00000
     39      -0.0228      2.00000
     40       0.0017      2.00000
     41       0.6100      2.00000
     42       0.7442      2.00000
     43       0.7790      2.00000
     44       0.7978      2.00000
     45       0.8164      2.00000
     46       0.8396      2.00000
     47       0.8446      2.00000
     48       0.8894      2.00000
     49       0.9001      2.00000
     50       0.9034      2.00000
     51       0.9128      2.00000
     52       0.9654      2.00000
     53       0.9695      2.00000
     54       0.9720      2.00000
     55       1.0770      2.00000
     56       1.0937      2.00000
     57       1.2409      2.00000
     58       1.2923      2.00000
     59       1.3271      2.00000
     60       1.4073      2.00000
     61       1.4389      2.00000
     62       1.5282      2.00000
     63       1.7078      2.00000
     64       1.8305      2.00000
     65       1.8818      2.00000
     66       1.9172      2.00000
     67       2.0616      2.00000
     68       2.0736      2.00000
     69       2.1499      2.00000
     70       2.2918      2.00000
     71       2.3489      2.00000
     72       2.4693      2.00000
     73       2.5364      2.00000
     74       2.6977      2.00000
     75       2.9967      2.00000
     76       3.2695      2.00000
     77       3.4223      2.00000
     78       3.5346      2.00000
     79       3.9723      0.00000
     80       4.0790      0.00000
     81       4.6117      0.00000
     82       4.7383      0.00000
     83       6.1503      0.00000
     84       6.2116      0.00000
     85       6.3556      0.00000
     86       6.5675      0.00000
     87       6.6378      0.00000
     88       6.9066      0.00000
     89       7.8630      0.00000
     90       8.5168      0.00000
     91       8.7360      0.00000
     92       8.9448      0.00000
     93       9.1472      0.00000
     94       9.1596      0.00000
     95       9.3215      0.00000
     96       9.4368      0.00000

 k-point   5 :       0.2500    0.2500    0.0000
  band No.  band energies     occupation 
      1     -10.6255      2.00000
      2     -10.4000      2.00000
      3      -9.5407      2.00000
      4      -9.3769      2.00000
      5      -9.2676      2.00000
      6      -9.1236      2.00000
      7      -9.1119      2.00000
      8      -9.0663      2.00000
      9      -8.3901      2.00000
     10      -8.3675      2.00000
     11      -5.2923      2.00000
     12      -5.2138      2.00000
     13      -1.6356      2.00000
     14      -1.6180      2.00000
     15      -1.5248      2.00000
     16      -1.4064      2.00000
     17      -1.3869      2.00000
     18      -1.2197      2.00000
     19      -1.1110      2.00000
     20      -1.0542      2.00000
     21      -0.9508      2.00000
     22      -0.8730      2.00000
     23      -0.8677      2.00000
     24      -0.6819      2.00000
     25      -0.6054      2.00000
     26      -0.5403      2.00000
     27      -0.5102      2.00000
     28      -0.4247      2.00000
     29      -0.4023      2.00000
     30      -0.3927      2.00000
     31      -0.3482      2.00000
     32      -0.3345      2.00000
     33      -0.2848      2.00000
     34      -0.2577      2.00000
     35      -0.1765      2.00000
     36      -0.1509      2.00000
     37      -0.0748      2.00000
     38      -0.0542      2.00000
     39      -0.0511      2.00000
     40      -0.0199      2.00000
     41       0.6290      2.00000
     42       0.7530      2.00000
     43       0.7828      2.00000
     44       0.7830      2.00000
     45       0.8226      2.00000
     46       0.8291      2.00000
     47       0.8404      2.00000
     48       0.8756      2.00000
     49       0.9022      2.00000
     50       0.9114      2.00000
     51       0.9124      2.00000
     52       0.9492      2.00000
     53       0.9510      2.00000
     54       1.0045      2.00000
     55       1.0399      2.00000
     56       1.1347      2.00000
     57       1.2273      2.00000
     58       1.2802      2.00000
     59       1.3265      2.00000
     60       1.4009      2.00000
     61       1.5011      2.00000
     62       1.5235      2.00000
     63       1.5451      2.00000
     64       1.8516      2.00000
     65       1.9295      2.00000
     66       1.9330      2.00000
     67       2.0273      2.00000
     68       2.1263      2.00000
     69       2.1783      2.00000
     70       2.2809      2.00000
     71       2.4954      2.00000
     72       2.5229      2.00000
     73       2.7020      2.00000
     74       2.7751      2.00000
     75       2.9152      2.00000
     76       3.1216      2.00000
     77       3.2780      2.00000
     78       3.7639      1.99998
     79       3.7898      1.46715
     80       4.0238      0.00000
     81       4.6960      0.00000
     82       4.7116      0.00000
     83       6.0967      0.00000
     84       6.2940      0.00000
     85       6.3196      0.00000
     86       6.4068      0.00000
     87       6.6658      0.00000
     88       6.7781      0.00000
     89       8.0436      0.00000
     90       8.5524      0.00000
     91       8.7739      0.00000
     92       8.8752      0.00000
     93       9.0290      0.00000
     94       9.3665      0.00000
     95       9.3760      0.00000
     96       9.3980      0.00000

 k-point   6 :       0.5000    0.2500    0.0000
  band No.  band energies     occupation 
      1     -10.5115      2.00000
      2     -10.5109      2.00000
      3      -9.5252      2.00000
      4      -9.5115      2.00000
      5      -9.1893      2.00000
      6      -9.1362      2.00000
      7      -9.0927      2.00000
      8      -9.0553      2.00000
      9      -8.3636      2.00000
     10      -8.3603      2.00000
     11      -5.2608      2.00000
     12      -5.2594      2.00000
     13      -1.6578      2.00000
     14      -1.6188      2.00000
     15      -1.4565      2.00000
     16      -1.3999      2.00000
     17      -1.3039      2.00000
     18      -1.2657      2.00000
     19      -1.1074      2.00000
     20      -1.0789      2.00000
     21      -0.9300      2.00000
     22      -0.9090      2.00000
     23      -0.7871      2.00000
     24      -0.7733      2.00000
     25      -0.6660      2.00000
     26      -0.6297      2.00000
     27      -0.4505      2.00000
     28      -0.4359      2.00000
     29      -0.4036      2.00000
     30      -0.3712      2.00000
     31      -0.3564      2.00000
     32      -0.3348      2.00000
     33      -0.3033      2.00000
     34      -0.2990      2.00000
     35      -0.1458      2.00000
     36      -0.1046      2.00000
     37      -0.1023      2.00000
     38      -0.0839      2.00000
     39      -0.0353      2.00000
     40      -0.0306      2.00000
     41       0.7005      2.00000
     42       0.7099      2.00000
     43       0.7741      2.00000
     44       0.7837      2.00000
     45       0.8038      2.00000
     46       0.8101      2.00000
     47       0.8761      2.00000
     48       0.8854      2.00000
     49       0.8872      2.00000
     50       0.8932      2.00000
     51       0.9277      2.00000
     52       0.9477      2.00000
     53       0.9562      2.00000
     54       0.9984      2.00000
     55       1.0784      2.00000
     56       1.1372      2.00000
     57       1.2138      2.00000
     58       1.2324      2.00000
     59       1.2948      2.00000
     60       1.3978      2.00000
     61       1.4228      2.00000
     62       1.5555      2.00000
     63       1.6633      2.00000
     64       1.7366      2.00000
     65       1.9407      2.00000
     66       1.9678      2.00000
     67       2.1022      2.00000
     68       2.1369      2.00000
     69       2.3234      2.00000
     70       2.3368      2.00000
     71       2.3655      2.00000
     72       2.4800      2.00000
     73       2.7692      2.00000
     74       2.8685      2.00000
     75       2.9955      2.00000
     76       3.1693      2.00000
     77       3.3615      2.00000
     78       3.4313      2.00000
     79       3.7359      2.00000
     80       4.0326      0.00000
     81       4.6897      0.00000
     82       4.7599      0.00000
     83       6.0242      0.00000
     84       6.1439      0.00000
     85       6.4969      0.00000
     86       6.5379      0.00000
     87       6.5655      0.00000
     88       6.6154      0.00000
     89       8.2809      0.00000
     90       8.3627      0.00000
     91       8.7672      0.00000
     92       8.8213      0.00000
     93       9.0775      0.00000
     94       9.1823      0.00000
     95       9.3030      0.00000
     96       9.5149      0.00000

 k-point   7 :      -0.2500    0.2500    0.0000
  band No.  band energies     occupation 
      1     -10.6255      2.00000
      2     -10.4000      2.00000
      3      -9.5407      2.00000
      4      -9.3769      2.00000
      5      -9.2676      2.00000
      6      -9.1236      2.00000
      7      -9.1119      2.00000
      8      -9.0663      2.00000
      9      -8.3901      2.00000
     10      -8.3675      2.00000
     11      -5.2923      2.00000
     12      -5.2138      2.00000
     13      -1.6356      2.00000
     14      -1.6180      2.00000
     15      -1.5248      2.00000
     16      -1.4064      2.00000
     17      -1.3869      2.00000
     18      -1.2197      2.00000
     19      -1.1110      2.00000
     20      -1.0542      2.00000
     21      -0.9508      2.00000
     22      -0.8731      2.00000
     23      -0.8676      2.00000
     24      -0.6819      2.00000
     25      -0.6054      2.00000
     26      -0.5403      2.00000
     27      -0.5102      2.00000
     28      -0.4247      2.00000
     29      -0.4023      2.00000
     30      -0.3927      2.00000
     31      -0.3483      2.00000
     32      -0.3345      2.00000
     33      -0.2848      2.00000
     34      -0.2577      2.00000
     35      -0.1765      2.00000
     36      -0.1510      2.00000
     37      -0.0748      2.00000
     38      -0.0542      2.00000
     39      -0.0511      2.00000
     40      -0.0198      2.00000
     41       0.6290      2.00000
     42       0.7530      2.00000
     43       0.7828      2.00000
     44       0.7830      2.00000
     45       0.8226      2.00000
     46       0.8291      2.00000
     47       0.8404      2.00000
     48       0.8756      2.00000
     49       0.9022      2.00000
     50       0.9113      2.00000
     51       0.9123      2.00000
     52       0.9492      2.00000
     53       0.9510      2.00000
     54       1.0045      2.00000
     55       1.0398      2.00000
     56       1.1347      2.00000
     57       1.2273      2.00000
     58       1.2803      2.00000
     59       1.3265      2.00000
     60       1.4009      2.00000
     61       1.5011      2.00000
     62       1.5235      2.00000
     63       1.5451      2.00000
     64       1.8516      2.00000
     65       1.9295      2.00000
     66       1.9329      2.00000
     67       2.0273      2.00000
     68       2.1263      2.00000
     69       2.1782      2.00000
     70       2.2810      2.00000
     71       2.4954      2.00000
     72       2.5229      2.00000
     73       2.7020      2.00000
     74       2.7751      2.00000
     75       2.9152      2.00000
     76       3.1216      2.00000
     77       3.2780      2.00000
     78       3.7639      1.99998
     79       3.7898      1.46715
     80       4.0238      0.00000
     81       4.6960      0.00000
     82       4.7116      0.00000
     83       6.0967      0.00000
     84       6.2940      0.00000
     85       6.3196      0.00000
     86       6.4068      0.00000
     87       6.6658      0.00000
     88       6.7781      0.00000
     89       8.0436      0.00000
     90       8.5524      0.00000
     91       8.7739      0.00000
     92       8.8752      0.00000
     93       9.0290      0.00000
     94       9.3652      0.00000
     95       9.3771      0.00000
     96       9.3976      0.00000

 k-point   8 :       0.0000    0.5000    0.0000
  band No.  band energies     occupation 
      1     -10.5289      2.00000
      2     -10.5289      2.00000
      3      -9.3523      2.00000
      4      -9.3522      2.00000
      5      -9.3058      2.00000
      6      -9.3058      2.00000
      7      -9.0739      2.00000
      8      -9.0739      2.00000
      9      -8.3759      2.00000
     10      -8.3758      2.00000
     11      -5.2504      2.00000
     12      -5.2504      2.00000
     13      -1.6078      2.00000
     14      -1.6078      2.00000
     15      -1.4304      2.00000
     16      -1.4304      2.00000
     17      -1.3441      2.00000
     18      -1.3441      2.00000
     19      -1.1273      2.00000
     20      -1.1273      2.00000
     21      -0.9448      2.00000
     22      -0.9447      2.00000
     23      -0.7664      2.00000
     24      -0.7663      2.00000
     25      -0.4987      2.00000
     26      -0.4987      2.00000
     27      -0.4450      2.00000
     28      -0.4449      2.00000
     29      -0.3973      2.00000
     30      -0.3972      2.00000
     31      -0.3686      2.00000
     32      -0.3686      2.00000
     33      -0.3058      2.00000
     34      -0.3057      2.00000
     35      -0.1792      2.00000
     36      -0.1791      2.00000
     37      -0.0791      2.00000
     38      -0.0791      2.00000
     39      -0.0045      2.00000
     40      -0.0044      2.00000
     41       0.6704      2.00000
     42       0.6705      2.00000
     43       0.7998      2.00000
     44       0.7999      2.00000
     45       0.8302      2.00000
     46       0.8303      2.00000
     47       0.8610      2.00000
     48       0.8611      2.00000
     49       0.8957      2.00000
     50       0.8958      2.00000
     51       0.9518      2.00000
     52       0.9518      2.00000
     53       1.0147      2.00000
     54       1.0147      2.00000
     55       1.0617      2.00000
     56       1.0617      2.00000
     57       1.2389      2.00000
     58       1.2390      2.00000
     59       1.3999      2.00000
     60       1.3999      2.00000
     61       1.6063      2.00000
     62       1.6063      2.00000
     63       1.6624      2.00000
     64       1.6624      2.00000
     65       1.8962      2.00000
     66       1.8962      2.00000
     67       2.0457      2.00000
     68       2.0457      2.00000
     69       2.2203      2.00000
     70       2.2204      2.00000
     71       2.3250      2.00000
     72       2.3251      2.00000
     73       2.6909      2.00000
     74       2.6910      2.00000
     75       3.3213      2.00000
     76       3.3213      2.00000
     77       3.5342      2.00000
     78       3.5342      2.00000
     79       3.7959      0.80815
     80       3.7959      0.80520
     81       4.7261      0.00000
     82       4.7261      0.00000
     83       6.2470      0.00000
     84       6.2471      0.00000
     85       6.4700      0.00000
     86       6.4701      0.00000
     87       6.5702      0.00000
     88       6.5702      0.00000
     89       8.2384      0.00000
     90       8.2384      0.00000
     91       8.7528      0.00000
     92       8.7529      0.00000
     93       9.0819      0.00000
     94       9.0820      0.00000
     95       9.3081      0.00000
     96       9.3081      0.00000

 k-point   9 :       0.2500    0.5000    0.0000
  band No.  band energies     occupation 
      1     -10.5115      2.00000
      2     -10.5109      2.00000
      3      -9.5252      2.00000
      4      -9.5115      2.00000
      5      -9.1893      2.00000
      6      -9.1362      2.00000
      7      -9.0927      2.00000
      8      -9.0553      2.00000
      9      -8.3636      2.00000
     10      -8.3603      2.00000
     11      -5.2608      2.00000
     12      -5.2594      2.00000
     13      -1.6578      2.00000
     14      -1.6188      2.00000
     15      -1.4565      2.00000
     16      -1.3999      2.00000
     17      -1.3039      2.00000
     18      -1.2656      2.00000
     19      -1.1074      2.00000
     20      -1.0789      2.00000
     21      -0.9300      2.00000
     22      -0.9090      2.00000
     23      -0.7871      2.00000
     24      -0.7733      2.00000
     25      -0.6660      2.00000
     26      -0.6297      2.00000
     27      -0.4505      2.00000
     28      -0.4359      2.00000
     29      -0.4036      2.00000
     30      -0.3712      2.00000
     31      -0.3564      2.00000
     32      -0.3348      2.00000
     33      -0.3033      2.00000
     34      -0.2991      2.00000
     35      -0.1458      2.00000
     36      -0.1046      2.00000
     37      -0.1023      2.00000
     38      -0.0839      2.00000
     39      -0.0353      2.00000
     40      -0.0305      2.00000
     41       0.7005      2.00000
     42       0.7098      2.00000
     43       0.7741      2.00000
     44       0.7837      2.00000
     45       0.8038      2.00000
     46       0.8100      2.00000
     47       0.8761      2.00000
     48       0.8854      2.00000
     49       0.8871      2.00000
     50       0.8932      2.00000
     51       0.9277      2.00000
     52       0.9477      2.00000
     53       0.9562      2.00000
     54       0.9984      2.00000
     55       1.0784      2.00000
     56       1.1372      2.00000
     57       1.2138      2.00000
     58       1.2324      2.00000
     59       1.2948      2.00000
     60       1.3978      2.00000
     61       1.4228      2.00000
     62       1.5555      2.00000
     63       1.6633      2.00000
     64       1.7366      2.00000
     65       1.9407      2.00000
     66       1.9678      2.00000
     67       2.1022      2.00000
     68       2.1369      2.00000
     69       2.3234      2.00000
     70       2.3368      2.00000
     71       2.3655      2.00000
     72       2.4800      2.00000
     73       2.7692      2.00000
     74       2.8685      2.00000
     75       2.9956      2.00000
     76       3.1693      2.00000
     77       3.3615      2.00000
     78       3.4313      2.00000
     79       3.7359      2.00000
     80       4.0326      0.00000
     81       4.6897      0.00000
     82       4.7599      0.00000
     83       6.0242      0.00000
     84       6.1439      0.00000
     85       6.4969      0.00000
     86       6.5379      0.00000
     87       6.5654      0.00000
     88       6.6154      0.00000
     89       8.2809      0.00000
     90       8.3627      0.00000
     91       8.7672      0.00000
     92       8.8213      0.00000
     93       9.0775      0.00000
     94       9.1823      0.00000
     95       9.3030      0.00000
     96       9.5145      0.00000

 k-point  10 :       0.5000    0.5000    0.0000
  band No.  band energies     occupation 
      1     -10.4920      2.00000
      2     -10.4920      2.00000
      3      -9.6053      2.00000
      4      -9.6053      2.00000
      5      -9.1169      2.00000
      6      -9.1169      2.00000
      7      -9.0582      2.00000
      8      -9.0582      2.00000
      9      -8.3474      2.00000
     10      -8.3473      2.00000
     11      -5.2699      2.00000
     12      -5.2699      2.00000
     13      -1.6657      2.00000
     14      -1.6657      2.00000
     15      -1.3790      2.00000
     16      -1.3790      2.00000
     17      -1.3212      2.00000
     18      -1.3212      2.00000
     19      -0.9032      2.00000
[...]
     95       9.9927      0.00000
     96       9.9959      0.00000


--------------------------------------------------------------------------------------------------------


 soft charge-density along one line, spin component           1
         0         1         2         3         4         5         6         7         8         9
 total charge-density along one line
 
 pseudopotential strength for first ion, spin component:           1
 40.824  -0.027  -0.000   0.000  -0.000  -0.000  -0.000  -0.000
 -0.027   1.445  -0.000   0.000  -0.000   0.000  -0.000   0.000
 -0.000  -0.000   9.401   0.000   0.000  -0.002   0.000   0.000
  0.000   0.000   0.000   9.401  -0.000   0.000  -0.002   0.000
 -0.000  -0.000   0.000  -0.000   9.401   0.000   0.000  -0.002
 -0.000   0.000  -0.002   0.000   0.000   0.007  -0.000  -0.000
 -0.000  -0.000   0.000  -0.002   0.000  -0.000   0.007  -0.000
 -0.000   0.000   0.000   0.000  -0.002  -0.000  -0.000   0.007
  0.000  -0.000  -0.000   0.001  -0.000  -0.000   0.000  -0.000
  0.000  -0.000   0.001  -0.000   0.001   0.000  -0.000   0.000
  0.000  -0.000   0.000   0.000   0.000   0.000  -0.000   0.000
 -0.000  -0.000   0.001  -0.000  -0.001   0.000  -0.000  -0.000
  0.000  -0.000   0.000  -0.001  -0.000   0.000  -0.000  -0.000
 total augmentation occupancy for first ion, spin component:           1
  1.849  -0.001  -0.000  -0.000  -0.000   0.000  -0.000  -0.000  -0.000   0.000  -0.001  -0.000  -0.000
 -0.001   0.017   0.000   0.000   0.000  -0.000  -0.000  -0.000  -0.000  -0.000   0.000   0.000  -0.000
 -0.000   0.000   0.955   0.000  -0.000  -0.559   0.000   0.000   0.000  -0.062   0.000  -0.082   0.000
 -0.000   0.000   0.000   0.950  -0.000   0.000  -0.565  -0.000  -0.081   0.000   0.000  -0.000   0.062
 -0.000   0.000  -0.000  -0.000   0.955  -0.000   0.000  -0.559  -0.000  -0.082   0.000   0.062  -0.000
  0.000  -0.000  -0.559   0.000  -0.000   0.549  -0.000  -0.000   0.000   0.052  -0.000   0.068   0.000
 -0.000  -0.000   0.000  -0.565   0.000  -0.000   0.551   0.000   0.068   0.000  -0.000   0.000  -0.052
 -0.000  -0.000   0.000  -0.000  -0.559  -0.000   0.000   0.549   0.000   0.068  -0.000  -0.052   0.000
 -0.000  -0.000   0.000  -0.081  -0.000   0.000   0.068   0.000   0.035   0.000   0.000  -0.000  -0.011
  0.000  -0.000  -0.062   0.000  -0.082   0.052   0.000   0.068   0.000   0.044  -0.000  -0.000   0.000
 -0.001   0.000   0.000   0.000   0.000  -0.000  -0.000  -0.000   0.000  -0.000   0.021  -0.000   0.000
 -0.000   0.000  -0.082  -0.000   0.062   0.068   0.000  -0.052  -0.000  -0.000  -0.000   0.044  -0.000
 -0.000  -0.000   0.000   0.062  -0.000   0.000  -0.052   0.000  -0.011   0.000   0.000  -0.000   0.029


------------------------ aborting loop because EDIFF is reached ----------------------------------------


 


 total charge     
 
# of ion     s       p       d       tot
----------------------------------------
  1        1.145   1.085   0.100   2.330
  2        1.145   1.085   0.100   2.330
  3        1.348   2.330   0.000   3.677
  4        1.348   2.330   0.000   3.677
  5        1.348   2.330   0.000   3.677
  6        1.348   2.330   0.000   3.677
  7        1.348   2.330   0.000   3.677
  8        1.348   2.330   0.000   3.677
  9        1.348   2.330   0.000   3.677
 10        1.348   2.330   0.000   3.677
 11        1.319   2.382   0.000   3.701
 12        1.319   2.382   0.000   3.701
 13        0.378   0.373   9.385  10.135
 14        0.378   0.373   9.385  10.135
 15        0.378   0.373   9.385  10.135
 16        0.378   0.373   9.385  10.135
 17        0.378   0.373   9.385  10.135
 18        0.378   0.373   9.385  10.135
 19        0.378   0.373   9.385  10.135
 20        0.378   0.373   9.385  10.135
------------------------------------------------
tot       18.729  28.554  75.278 122.561
 
    CHARGE:  cpu time    0.95: real time    1.52
    FORLOC:  cpu time    0.01: real time    0.02
    FORNL :  cpu time    4.22: real time    5.87
    STRESS:  cpu time    9.05: real time   12.66
    FORCOR:  cpu time    0.05: real time    0.08
    FORHAR:  cpu time    0.02: real time    0.02
    MIXING:  cpu time    0.00: real time    0.00

  FORCE on cell =-STRESS in cart. coord.  units (eV):
  Direction    XX          YY          ZZ          XY          YZ          ZX
  --------------------------------------------------------------------------------------
  Alpha Z   474.22880   474.22880   474.22880
  Ewald   -3208.29263 -3208.29023 -3048.91653    -0.00155    -0.00017     0.00125
  Hartree  1512.36714  1512.36836  1667.04303    -0.00182    -0.00002     0.00053
  E(xc)    -756.94959  -756.94958  -756.90862    -0.00000     0.00000    -0.00000
  Local    -338.44758  -338.45107  -652.17531     0.00362     0.00023    -0.00174
  n-local   568.40974   568.40971   568.58477    -0.00097    -0.00002     0.00005
  augment   232.49116   232.49103   232.06363     0.00095     0.00004     0.00004
  Kinetic  1516.62554  1516.62551  1516.37401    -0.00017     0.00001    -0.00001
  Fock        0.00000     0.00000     0.00000     0.00000     0.00000     0.00000
  -------------------------------------------------------------------------------------
  Total       0.43258     0.43253     0.29377     0.00006     0.00007     0.00012
  in kB       1.79817     1.79795     1.22116     0.00026     0.00028     0.00051
  external pressure =        1.61 kB  Pullay stress =        0.00 kB


 VOLUME and BASIS-vectors are now :
 -----------------------------------------------------------------------------
  energy-cutoff  :      340.00
  volume of cell :      385.4328
      direct lattice vectors                 reciprocal lattice vectors
     8.468780064 -0.000000941 -0.000001905     0.118080762  0.000000072  0.000000020
    -0.000005144  8.468779255 -0.000000984     0.000000013  0.118080773  0.000000005
    -0.000000922 -0.000000235  5.374116066     0.000000042  0.000000022  0.186077113

  length of vectors
     8.468780064  8.468779255  5.374116066     0.118080762  0.118080773  0.186077113


 FORCES acting on ions
    electron-ion (+dipol)            ewald-force                    non-local-force                 convergence-correction
 -----------------------------------------------------------------------------------------------
   -.371E-03 -.364E-03 0.145E-02   -.164E-03 -.558E-04 -.149E-02   0.926E-05 0.159E-04 -.325E-04   0.513E-03 0.403E-03 -.218E-04
   0.635E-03 0.374E-03 -.134E-02   -.541E-04 0.148E-03 0.141E-02   -.740E-05 -.272E-04 -.261E-04   -.590E-03 -.488E-03 0.509E-04
   0.276E+02 0.691E+02 -.354E+02   -.269E+02 -.674E+02 0.340E+02   -.739E+00 -.165E+01 0.145E+01   0.101E-02 -.251E-03 -.205E-04
   -.276E+02 -.691E+02 -.354E+02   0.269E+02 0.674E+02 0.340E+02   0.739E+00 0.165E+01 0.145E+01   0.513E-03 0.695E-03 -.204E-03
   0.691E+02 -.276E+02 0.354E+02   -.674E+02 0.269E+02 -.340E+02   -.165E+01 0.739E+00 -.145E+01   -.743E-03 -.125E-02 -.158E-03
   -.691E+02 0.276E+02 0.354E+02   0.674E+02 -.269E+02 -.340E+02   0.165E+01 -.739E+00 -.145E+01   0.516E-04 -.387E-04 0.324E-04
   0.276E+02 0.691E+02 -.354E+02   -.269E+02 -.674E+02 0.340E+02   -.740E+00 -.165E+01 0.145E+01   -.123E-02 0.763E-03 0.908E-04
   -.276E+02 -.691E+02 -.354E+02   0.269E+02 0.674E+02 0.340E+02   0.740E+00 0.165E+01 0.145E+01   -.992E-04 -.104E-02 -.581E-04
   0.691E+02 -.276E+02 0.354E+02   -.674E+02 0.269E+02 -.340E+02   -.165E+01 0.740E+00 -.145E+01   0.895E-03 0.768E-03 0.156E-03
   -.691E+02 0.276E+02 0.354E+02   0.674E+02 -.269E+02 -.340E+02   0.165E+01 -.740E+00 -.145E+01   -.718E-03 0.160E-03 -.167E-03
   -.132E-02 0.932E-03 -.316E-03   0.253E-03 -.406E-03 0.186E-03   0.432E-04 0.524E-05 -.233E-04   0.110E-02 -.556E-03 0.212E-03
   0.980E-03 -.999E-03 -.446E-03   -.228E-03 0.225E-03 0.389E-03   -.333E-04 0.127E-04 0.138E-05   -.767E-03 0.806E-03 0.976E-04
   -.600E+02 0.250E+02 0.614E+01   0.582E+02 -.241E+02 -.466E+01   0.178E+01 -.871E+00 -.149E+01   -.190E-02 0.197E-02 -.107E-03
   0.600E+02 -.250E+02 0.614E+01   -.582E+02 0.241E+02 -.466E+01   -.178E+01 0.871E+00 -.149E+01   0.108E-02 0.336E-04 -.201E-03
   0.250E+02 0.600E+02 -.614E+01   -.241E+02 -.582E+02 0.466E+01   -.871E+00 -.178E+01 0.149E+01   -.561E-03 0.189E-02 0.741E-04
   -.250E+02 -.600E+02 -.614E+01   0.241E+02 0.582E+02 0.466E+01   0.871E+00 0.178E+01 0.149E+01   -.188E-02 -.127E-02 0.182E-03
   -.600E+02 0.250E+02 0.614E+01   0.582E+02 -.241E+02 -.466E+01   0.178E+01 -.870E+00 -.149E+01   0.149E-02 -.136E-02 -.435E-03
   0.600E+02 -.250E+02 0.614E+01   -.582E+02 0.241E+02 -.466E+01   -.178E+01 0.870E+00 -.149E+01   -.208E-03 -.229E-03 -.396E-03
   0.250E+02 0.600E+02 -.614E+01   -.241E+02 -.582E+02 0.466E+01   -.870E+00 -.178E+01 0.149E+01   0.424E-03 -.144E-02 0.417E-03
   -.250E+02 -.600E+02 -.614E+01   0.241E+02 0.582E+02 0.466E+01   0.870E+00 0.178E+01 0.149E+01   0.181E-02 0.684E-03 0.305E-03
 -----------------------------------------------------------------------------------------------
   -.165E-03 -.264E-03 0.161E-03   -.711E-14 0.121E-12 -.888E-14   -.153E-04 0.170E-04 -.116E-04   0.196E-03 0.251E-03 -.150E-03
 
 
 POSITION                                       TOTAL-FORCE (eV/Angst)
 -----------------------------------------------------------------------------------
     -0.00000      4.23439      4.03059        -0.000013     -0.000001     -0.000102
      4.23438      8.46878      1.34353        -0.000018      0.000007      0.000094
      0.88408      6.01701      2.61661        -0.001631      0.040650      0.005656
      7.58469      2.45177      2.61660         0.001712     -0.040613      0.005626
      6.01700      7.58470      2.75751         0.040631      0.001573     -0.005685
      2.45177      0.88408      2.75751        -0.040647     -0.001625     -0.005659
      5.11850      1.78258      5.30365        -0.001967      0.040984      0.005690
      3.35027      6.68620      5.30365         0.001922     -0.041026      0.005670
      1.78258      3.35028      0.07046         0.041003      0.001883     -0.005652
      6.68620      5.11850      0.07046        -0.041015     -0.001864     -0.005727
      8.46878      0.00000      5.37411         0.000080     -0.000025      0.000059
      4.23439      4.23439      2.68705        -0.000050      0.000045      0.000042
      5.87056      3.40902      1.39386        -0.009038      0.007873     -0.008704
      2.59822      5.05976      1.39387         0.009065     -0.007871     -0.008696
      3.40902      2.59822      3.98025         0.007868      0.009057      0.008695
      5.05976      5.87056      3.98025        -0.007884     -0.009058      0.008701
      1.63616      7.64341      4.08092        -0.009101      0.007871     -0.008729
      6.83261      0.82537      4.08092         0.009075     -0.007863     -0.008736
      7.64341      6.83261      1.29319         0.007877      0.009092      0.008729
      0.82537      1.63617      1.29319        -0.007869     -0.009090      0.008730
 -----------------------------------------------------------------------------------
    total drift:                                0.000016      0.000004     -0.000000


--------------------------------------------------------------------------------------------------------



  FREE ENERGIE OF THE ION-ELECTRON SYSTEM (eV)
  ---------------------------------------------------
  free  energy   TOTEN  =       -70.723611 eV

  energy  without entropy=      -70.722614  energy(sigma->0) =      -70.723113
 


--------------------------------------------------------------------------------------------------------


    POTLOK:  cpu time    0.15: real time    0.15


--------------------------------------------------------------------------------------------------------


 writing wavefunctions
     LOOP+:  cpu time   74.97: real time  108.36
    4ORBIT:  cpu time    0.00: real time    0.00
 


 total charge     
 
# of ion     s       p       d       tot
----------------------------------------
  1        1.145   1.085   0.100   2.330
  2        1.145   1.085   0.100   2.330
  3        1.348   2.330   0.000   3.677
  4        1.348   2.330   0.000   3.677
  5        1.348   2.330   0.000   3.677
  6        1.348   2.330   0.000   3.677
  7        1.348   2.330   0.000   3.677
  8        1.348   2.330   0.000   3.677
  9        1.348   2.330   0.000   3.677
 10        1.348   2.330   0.000   3.677
 11        1.319   2.382   0.000   3.701
 12        1.319   2.382   0.000   3.701
 13        0.378   0.373   9.385  10.135
 14        0.378   0.373   9.385  10.135
 15        0.378   0.373   9.385  10.135
 16        0.378   0.373   9.385  10.135
 17        0.378   0.373   9.385  10.135
 18        0.378   0.373   9.385  10.135
 19        0.378   0.373   9.385  10.135
 20        0.378   0.373   9.385  10.135
------------------------------------------------
tot       18.729  28.554  75.278 122.561
 

 total amount of memory used by VASP on root node   186448. kBytes
========================================================================

   base      :      30000. kBytes
   nonl-proj :     125767. kBytes
   fftplans  :       5079. kBytes
   grid      :       6042. kBytes
   one-center:        311. kBytes
   wavefun   :      19249. kBytes
 
  
  
 General timing and accounting informations for this job:
 ========================================================
  
                  Total CPU time used (sec):       85.231
                            User time (sec):       63.563
                          System time (sec):       21.668
                         Elapsed time (sec):      123.157
  
                   Maximum memory used (kb):      277904.
                   Average memory used (kb):           0.
  
                          Minor page faults:        24233
                          Major page faults:            0
                 Voluntary context switches:         1252

################ CONTCAR ################
New structure                           
   1.00000000000000     
     8.4687800635899997   -0.0000009414420104   -0.0000019047021039
    -0.0000051444422135    8.4687792553300003   -0.0000009839270008
    -0.0000009217850495   -0.0000002346419302    5.3741160655800000
   Sb   S    Cu
     2    10     8
Direct
  0.0000001372403347  0.5000000847259969  0.7500003119900001
  0.5000000114320002  0.9999999141249987  0.2499997557929987
  0.1043932210120033  0.7104927783209973  0.4868905040960030
  0.8956065357619991  0.2895071271450007  0.4868904805540026
  0.7104928566900028  0.8956072066510004  0.5131095404260009
  0.2895071577950006  0.1043929500400012  0.5131094961299993
  0.6043969910040019  0.2104885327959991  0.9868889930650013
  0.3956031036629994  0.7895115531470012  0.9868890731769966
  0.2104884500740027  0.3956034297579976  0.0131110323010972
  0.7895114783609998  0.6043964085479985  0.0131112379043969
  0.9999999031590008  0.0000001498498179  0.9999996093619998
  0.5000001290400036  0.4999998016450036  0.4999994940190007
  0.6931999880129993  0.4025395964229972  0.2593666761559987
  0.3067998818539976  0.5974604969569981  0.2593666099470013
  0.4025395318880030  0.3067999212140009  0.7406334705329982
  0.5974604945199999  0.6932001784769994  0.7406334764280018
  0.1931999587020030  0.9025397607300008  0.7593668800910010
  0.8068001236470010  0.0974601321340032  0.7593669198200033
  0.9025397953460015  0.8068000559400019  0.2406332939769982
  0.0974602588000977  0.1931999293730016  0.2406331442300029
 
  0.00000000E+00  0.00000000E+00  0.00000000E+00
  0.00000000E+00  0.00000000E+00  0.00000000E+00
  0.00000000E+00  0.00000000E+00  0.00000000E+00
  0.00000000E+00  0.00000000E+00  0.00000000E+00
  0.00000000E+00  0.00000000E+00  0.00000000E+00
  0.00000000E+00  0.00000000E+00  0.00000000E+00
  0.00000000E+00  0.00000000E+00  0.00000000E+00
  0.00000000E+00  0.00000000E+00  0.00000000E+00
  0.00000000E+00  0.00000000E+00  0.00000000E+00
  0.00000000E+00  0.00000000E+00  0.00000000E+00
  0.00000000E+00  0.00000000E+00  0.00000000E+00
  0.00000000E+00  0.00000000E+00  0.00000000E+00
  0.00000000E+00  0.00000000E+00  0.00000000E+00
  0.00000000E+00  0.00000000E+00  0.00000000E+00
  0.00000000E+00  0.00000000E+00  0.00000000E+00
  0.00000000E+00  0.00000000E+00  0.00000000E+00
  0.00000000E+00  0.00000000E+00  0.00000000E+00
  0.00000000E+00  0.00000000E+00  0.00000000E+00
  0.00000000E+00  0.00000000E+00  0.00000000E+00
  0.00000000E+00  0.00000000E+00  0.00000000E+00

################ END CONTCAR ################

################ INCAR ################
LDUO1 = 1 1 1
LDUU1 =   0.0000000000e+00   0.0000000000e+00   5.0000000000e+00
LDUJ1 =   0.0000000000e+00   0.0000000000e+00   0.0000000000e+00
LDUL1 = -1 -1 2
LDAUTYPE = 2
LDAU = .TRUE.
ENCUT = 340.0
LCHARG = .TRUE.
LPLANE = .TRUE.
EDIFF = 1e-06
NSW = 0
ISTART = 1
SYSTEM = New structure
PREC = Accurate
ADDGRID = .TRUE.
ICHARG = 0
EDIFFG = -0.05
LORBIT = 11
NCORE = 16
LPEAD = .FALSE.
KPAR = 2
ISYM = 0
LOPTICS = .FALSE.
IBRION = -1
ISMEAR = 0
ISPIN = 1
LVHAR = .FALSE.
LVTOT = .FALSE.
ISIF = 2
LMAXMIX = 4
LWAVE = .TRUE.
SIGMA = 0.01
ALGO = Fast

################ END INCAR ################

################ INITIAL STRUCTURE ################
from pylada.crystal.cppwrappers import Structure
structure = Structure( 8.985, 0, 0,
                       0, 8.985, 0,
                       0, 0, 5.672,
                       scale=1, name='New structure' )\
              .add_atom(6.24008, 3.61287, 1.46508, 'Cu')\
              .add_atom(2.74492, 5.37213, 1.46508, 'Cu')\
              .add_atom(3.61287, 2.74492, 4.20692, 'Cu')\
              .add_atom(5.37213, 6.24008, 4.20692, 'Cu')\
              .add_atom(1.74758, 8.10537, 4.30108, 'Cu')\
              .add_atom(7.23742, 0.879631, 4.30108, 'Cu')\
              .add_atom(8.10537, 7.23742, 1.37092, 'Cu')\
              .add_atom(0.879631, 1.74758, 1.37092, 'Cu')\
              .add_atom(0, 4.4925, 4.254, 'Sb')\
              .add_atom(4.4925, 0, 1.418, 'Sb')\
              .add_atom(0.961395, 6.42877, 2.72823, 'S')\
              .add_atom(8.0236, 2.55623, 2.72823, 'S')\
              .add_atom(6.42877, 8.0236, 2.94377, 'S')\
              .add_atom(2.55623, 0.961395, 2.94377, 'S')\
              .add_atom(5.45389, 1.93627, 5.56423, 'S')\
              .add_atom(3.5311, 7.04873, 5.56423, 'S')\
              .add_atom(1.93627, 3.5311, 0.107768, 'S')\
              .add_atom(7.04873, 5.45389, 0.107768, 'S')\
              .add_atom(0, 0, 0, 'S')\
              .add_atom(4.4925, 4.4925, 2.836, 'S')
################ END INITIAL STRUCTURE ################


################ FUNCTIONAL ################
from pylada.vasp.relax import Relax
from quantities.quantity import Quantity

relax = Relax()
relax.add_param      = ('lmaxmix', 4)
relax.addgrid        = True
relax.ediff          = 1e-06
relax.ediffg         = -0.05
relax.encut          = 340.0
relax.first_trial    = {'kpoints': '\n0\nAuto\n30', 'ibrion': 2}
relax.ibrion         = -1
relax.isif           = 2
relax.ismear         = 'gaussian'
relax.ispin          = 1
relax.isym           = 0
relax.keep_steps     = True
relax.kpar           = 2
relax.kpoints        = '\n0\nAuto\n30'
relax.lmaxmix        = 4
relax.loptics        = False
relax.lorbit         = 11
relax.lpead          = False
relax.lplane         = True
relax.lwave          = True
relax.maxiter        = 8
relax.ncore          = 16
relax.npar           = 1
relax.nsw            = 0
relax.prec           = 'Accurate'
relax.program        = '/home/pzawadzk/pyladaExec.sh'
relax.restart        = Extract("/scratch/pzawadzk/materials/Cu4SbS5/bulk/relax/relax_ions/2")
relax.set_symmetries = 'off'
relax.sigma          = array(0.01) * eV
relax.species        = {'Sb': Specie('/nopt/nrel/ecom/cid/vasp.pseudopotentials.a/pseudos/Sb'), 'S': Specie('/nopt/nrel/ecom/cid/vasp.pseudopotentials.a/pseudos/S'), 'Cu': Specie('/nopt/nrel/ecom/cid/vasp.pseudopotentials.a/pseudos/Cu', oxidation=1, U=[{'type': 2, 'J': 0.0, 'U': 5.0, 'l': 2, 'func': 'U'}])}
################ END FUNCTIONAL ################
