  20  20   1   0
  0.1927164E+02  0.8468780E-09  0.8468779E-09  0.5374116E-09  0.5000000E-15
  1.000000000000000E-004
  CAR 
 New structure                           
     11.03191441    -11.76104691  301      3.79419797      1.00000000
    -11.761  0.0000E+00  0.0000E+00
    -11.685  0.0000E+00  0.0000E+00
    -11.609  0.0000E+00  0.0000E+00
    -11.533  0.0000E+00  0.0000E+00
    -11.457  0.0000E+00  0.0000E+00
    -11.381  0.0000E+00  0.0000E+00
    -11.305  0.0000E+00  0.0000E+00
    -11.229  0.0000E+00  0.0000E+00
    -11.153  0.0000E+00  0.0000E+00
    -11.077  0.0000E+00  0.0000E+00
    -11.001  0.0000E+00  0.0000E+00
    -10.925  0.0000E+00  0.0000E+00
    -10.849  0.0000E+00  0.0000E+00
    -10.773  0.1105E-11  0.8392E-13
    -10.697  0.2743E+00  0.2084E-01
    -10.621  0.2556E+01  0.2150E+00
    -10.545  0.4274E+01  0.5631E+00
    -10.469  0.6881E+01  0.1086E+01
    -10.393  0.1018E+02  0.1881E+01
    -10.317  0.1271E+02  0.2862E+01
    -10.242  0.1387E+02  0.3950E+01
    -10.166  0.5484E+00  0.4000E+01
    -10.090  0.0000E+00  0.4000E+01
    -10.014  0.0000E+00  0.4000E+01
     -9.938  0.0000E+00  0.4000E+01
     -9.862  0.0000E+00  0.4000E+01
     -9.786  0.0000E+00  0.4000E+01
     -9.710  0.0000E+00  0.4000E+01
     -9.634  0.1602E-04  0.4000E+01
     -9.558  0.1604E+01  0.4122E+01
     -9.482  0.1125E+02  0.4980E+01
     -9.406  0.2560E+02  0.6931E+01
     -9.330  0.2331E+02  0.8736E+01
     -9.254  0.2466E+02  0.1067E+02
     -9.178  0.2653E+02  0.1272E+02
     -9.102  0.3005E+02  0.1510E+02
     -9.026  0.1123E+02  0.1600E+02
     -8.950  0.0000E+00  0.1600E+02
     -8.874  0.0000E+00  0.1600E+02
     -8.798  0.0000E+00  0.1600E+02
     -8.722  0.0000E+00  0.1600E+02
     -8.646  0.0000E+00  0.1600E+02
     -8.570  0.0000E+00  0.1600E+02
     -8.494  0.7005E-05  0.1600E+02
     -8.418  0.1899E+02  0.1744E+02
     -8.342  0.3295E+02  0.1999E+02
     -8.266  0.0000E+00  0.2000E+02
     -8.190  0.0000E+00  0.2000E+02
     -8.114  0.0000E+00  0.2000E+02
     -8.038  0.0000E+00  0.2000E+02
     -7.962  0.0000E+00  0.2000E+02
     -7.886  0.0000E+00  0.2000E+02
     -7.810  0.0000E+00  0.2000E+02
     -7.734  0.0000E+00  0.2000E+02
     -7.658  0.0000E+00  0.2000E+02
     -7.582  0.0000E+00  0.2000E+02
     -7.506  0.0000E+00  0.2000E+02
     -7.430  0.0000E+00  0.2000E+02
     -7.354  0.0000E+00  0.2000E+02
     -7.278  0.0000E+00  0.2000E+02
     -7.202  0.0000E+00  0.2000E+02
     -7.126  0.0000E+00  0.2000E+02
     -7.051  0.0000E+00  0.2000E+02
     -6.975  0.0000E+00  0.2000E+02
     -6.899  0.0000E+00  0.2000E+02
     -6.823  0.0000E+00  0.2000E+02
     -6.747  0.0000E+00  0.2000E+02
     -6.671  0.0000E+00  0.2000E+02
     -6.595  0.0000E+00  0.2000E+02
     -6.519  0.0000E+00  0.2000E+02
     -6.443  0.0000E+00  0.2000E+02
     -6.367  0.0000E+00  0.2000E+02
     -6.291  0.0000E+00  0.2000E+02
     -6.215  0.0000E+00  0.2000E+02
     -6.139  0.0000E+00  0.2000E+02
     -6.063  0.0000E+00  0.2000E+02
     -5.987  0.0000E+00  0.2000E+02
     -5.911  0.0000E+00  0.2000E+02
     -5.835  0.0000E+00  0.2000E+02
     -5.759  0.0000E+00  0.2000E+02
     -5.683  0.0000E+00  0.2000E+02
     -5.607  0.0000E+00  0.2000E+02
     -5.531  0.0000E+00  0.2000E+02
     -5.455  0.0000E+00  0.2000E+02
     -5.379  0.1066E-15  0.2000E+02
     -5.303  0.2484E+01  0.2019E+02
     -5.227  0.3748E+02  0.2304E+02
     -5.151  0.1230E+02  0.2400E+02
     -5.075  0.0000E+00  0.2400E+02
     -4.999  0.0000E+00  0.2400E+02
     -4.923  0.0000E+00  0.2400E+02
     -4.847  0.0000E+00  0.2400E+02
     -4.771  0.0000E+00  0.2400E+02
     -4.695  0.0000E+00  0.2400E+02
     -4.619  0.0000E+00  0.2400E+02
     -4.543  0.0000E+00  0.2400E+02
     -4.467  0.0000E+00  0.2400E+02
     -4.391  0.0000E+00  0.2400E+02
     -4.315  0.0000E+00  0.2400E+02
     -4.239  0.0000E+00  0.2400E+02
     -4.163  0.0000E+00  0.2400E+02
     -4.087  0.0000E+00  0.2400E+02
     -4.011  0.0000E+00  0.2400E+02
     -3.935  0.0000E+00  0.2400E+02
     -3.859  0.0000E+00  0.2400E+02
     -3.784  0.0000E+00  0.2400E+02
     -3.708  0.0000E+00  0.2400E+02
     -3.632  0.0000E+00  0.2400E+02
     -3.556  0.0000E+00  0.2400E+02
     -3.480  0.0000E+00  0.2400E+02
     -3.404  0.0000E+00  0.2400E+02
     -3.328  0.0000E+00  0.2400E+02
     -3.252  0.0000E+00  0.2400E+02
     -3.176  0.0000E+00  0.2400E+02
     -3.100  0.0000E+00  0.2400E+02
     -3.024  0.0000E+00  0.2400E+02
     -2.948  0.0000E+00  0.2400E+02
     -2.872  0.0000E+00  0.2400E+02
     -2.796  0.0000E+00  0.2400E+02
     -2.720  0.0000E+00  0.2400E+02
     -2.644  0.0000E+00  0.2400E+02
     -2.568  0.0000E+00  0.2400E+02
     -2.492  0.0000E+00  0.2400E+02
     -2.416  0.0000E+00  0.2400E+02
     -2.340  0.0000E+00  0.2400E+02
     -2.264  0.0000E+00  0.2400E+02
     -2.188  0.0000E+00  0.2400E+02
     -2.112  0.0000E+00  0.2400E+02
     -2.036  0.4642E-01  0.2400E+02
     -1.960  0.7776E+01  0.2459E+02
     -1.884  0.1068E+02  0.2542E+02
     -1.808  0.6668E+01  0.2593E+02
     -1.732  0.2496E+02  0.2782E+02
     -1.656  0.1986E+02  0.2935E+02
     -1.580  0.1852E+02  0.3078E+02
     -1.504  0.2134E+02  0.3242E+02
     -1.428  0.1649E+02  0.3369E+02
     -1.352  0.1668E+02  0.3495E+02
     -1.276  0.9285E+01  0.3566E+02
     -1.200  0.5132E+01  0.3608E+02
     -1.124  0.7296E+01  0.3664E+02
     -1.048  0.2063E+02  0.3822E+02
     -0.972  0.9625E+01  0.3900E+02
     -0.896  0.1894E+02  0.4046E+02
     -0.820  0.2862E+02  0.4270E+02
     -0.744  0.1892E+02  0.4415E+02
     -0.668  0.2196E+02  0.4581E+02
     -0.592  0.1971E+02  0.4733E+02
     -0.517  0.4119E+02  0.5046E+02
     -0.441  0.4598E+02  0.5406E+02
     -0.365  0.7736E+02  0.6004E+02
     -0.289  0.8047E+02  0.6623E+02
     -0.213  0.5359E+02  0.7048E+02
     -0.137  0.4984E+02  0.7430E+02
     -0.061  0.5260E+02  0.7845E+02
      0.015  0.1920E+02  0.8000E+02
      0.091  0.0000E+00  0.8000E+02
      0.167  0.0000E+00  0.8000E+02
      0.243  0.0000E+00  0.8000E+02
      0.319  0.0000E+00  0.8000E+02
      0.395  0.0000E+00  0.8000E+02
      0.471  0.0000E+00  0.8000E+02
      0.547  0.2637E-09  0.8000E+02
      0.623  0.1560E+01  0.8012E+02
      0.699  0.7332E+01  0.8068E+02
      0.775  0.3248E+02  0.8320E+02
      0.851  0.1197E+03  0.9235E+02
      0.927  0.1349E+03  0.1028E+03
      1.003  0.9018E+02  0.1098E+03
      1.079  0.2362E+02  0.1117E+03
      1.155  0.2196E+02  0.1134E+03
      1.231  0.2437E+02  0.1153E+03
      1.307  0.1216E+02  0.1162E+03
      1.383  0.2155E+02  0.1179E+03
      1.459  0.2134E+02  0.1195E+03
      1.535  0.1988E+02  0.1210E+03
      1.611  0.2075E+02  0.1226E+03
      1.687  0.2587E+02  0.1246E+03
      1.763  0.2462E+02  0.1266E+03
      1.839  0.2137E+02  0.1282E+03
      1.915  0.9972E+01  0.1290E+03
      1.991  0.2326E+02  0.1308E+03
      2.067  0.1478E+02  0.1319E+03
      2.143  0.1381E+02  0.1330E+03
      2.219  0.1948E+02  0.1345E+03
      2.295  0.1995E+02  0.1360E+03
      2.371  0.2742E+02  0.1381E+03
      2.447  0.1831E+02  0.1396E+03
      2.523  0.1448E+02  0.1407E+03
      2.599  0.1059E+02  0.1416E+03
      2.674  0.1206E+02  0.1425E+03
      2.750  0.2143E+02  0.1441E+03
      2.826  0.1501E+02  0.1453E+03
      2.902  0.1235E+02  0.1462E+03
      2.978  0.1265E+02  0.1472E+03
      3.054  0.2012E+02  0.1488E+03
      3.130  0.1259E+02  0.1498E+03
      3.206  0.1323E+02  0.1508E+03
      3.282  0.1611E+02  0.1521E+03
      3.358  0.1536E+02  0.1533E+03
      3.434  0.1352E+02  0.1543E+03
      3.510  0.6835E+01  0.1548E+03
      3.586  0.1410E+02  0.1559E+03
      3.662  0.9609E+01  0.1567E+03
      3.738  0.1013E+02  0.1574E+03
      3.814  0.1183E+02  0.1583E+03
      3.890  0.9453E+01  0.1591E+03
      3.966  0.1710E+01  0.1592E+03
      4.042  0.5357E+01  0.1596E+03
      4.118  0.4363E+01  0.1599E+03
      4.194  0.4547E+00  0.1600E+03
      4.270  0.3677E+00  0.1600E+03
      4.346  0.0000E+00  0.1600E+03
      4.422  0.0000E+00  0.1600E+03
      4.498  0.3143E+00  0.1600E+03
      4.574  0.1487E+02  0.1612E+03
      4.650  0.1616E+02  0.1624E+03
      4.726  0.1574E+02  0.1637E+03
      4.802  0.4082E+01  0.1640E+03
      4.878  0.0000E+00  0.1640E+03
      4.954  0.0000E+00  0.1640E+03
      5.030  0.0000E+00  0.1640E+03
      5.106  0.0000E+00  0.1640E+03
      5.182  0.0000E+00  0.1640E+03
      5.258  0.0000E+00  0.1640E+03
      5.334  0.0000E+00  0.1640E+03
      5.410  0.0000E+00  0.1640E+03
      5.486  0.0000E+00  0.1640E+03
      5.562  0.0000E+00  0.1640E+03
      5.638  0.0000E+00  0.1640E+03
      5.714  0.0000E+00  0.1640E+03
      5.790  0.0000E+00  0.1640E+03
      5.866  0.0000E+00  0.1640E+03
      5.941  0.4316E+00  0.1640E+03
      6.017  0.9368E+00  0.1641E+03
      6.093  0.1454E+01  0.1642E+03
      6.169  0.2987E+01  0.1644E+03
      6.245  0.7562E+01  0.1650E+03
      6.321  0.6845E+01  0.1656E+03
      6.397  0.9735E+01  0.1663E+03
      6.473  0.9222E+01  0.1671E+03
      6.549  0.1308E+02  0.1681E+03
      6.625  0.1852E+02  0.1695E+03
      6.701  0.2038E+02  0.1711E+03
      6.777  0.2414E+02  0.1729E+03
      6.853  0.9222E+01  0.1736E+03
      6.929  0.2346E+02  0.1754E+03
      7.005  0.7122E+01  0.1760E+03
      7.081  0.2742E+00  0.1760E+03
      7.157  0.0000E+00  0.1760E+03
      7.233  0.0000E+00  0.1760E+03
      7.309  0.0000E+00  0.1760E+03
      7.385  0.0000E+00  0.1760E+03
      7.461  0.0000E+00  0.1760E+03
      7.537  0.0000E+00  0.1760E+03
      7.613  0.0000E+00  0.1760E+03
      7.689  0.1159E-02  0.1760E+03
      7.765  0.2730E+00  0.1760E+03
      7.841  0.1802E-01  0.1760E+03
      7.917  0.1627E+01  0.1761E+03
      7.993  0.3896E-12  0.1761E+03
      8.069  0.1098E+01  0.1762E+03
      8.145  0.2193E+01  0.1764E+03
      8.221  0.6984E-02  0.1764E+03
      8.297  0.4377E+01  0.1767E+03
      8.373  0.4458E+01  0.1771E+03
      8.449  0.3101E+01  0.1773E+03
      8.525  0.6557E+01  0.1778E+03
      8.601  0.1016E+02  0.1787E+03
      8.677  0.7798E+01  0.1793E+03
      8.753  0.6909E+01  0.1798E+03
      8.829  0.1587E+02  0.1810E+03
      8.905  0.1324E+02  0.1820E+03
      8.981  0.5396E+01  0.1825E+03
      9.057  0.1106E+02  0.1833E+03
      9.133  0.1834E+02  0.1847E+03
      9.208  0.7067E+01  0.1853E+03
      9.284  0.1077E+02  0.1861E+03
      9.360  0.1968E+02  0.1876E+03
      9.436  0.1581E+02  0.1888E+03
      9.512  0.1592E+02  0.1900E+03
      9.588  0.6843E+01  0.1905E+03
      9.664  0.8016E+01  0.1912E+03
      9.740  0.5036E+01  0.1915E+03
      9.816  0.3546E+01  0.1918E+03
      9.892  0.1914E+01  0.1920E+03
      9.968  0.8661E-04  0.1920E+03
     10.044  0.5483E+00  0.1920E+03
     10.120  0.0000E+00  0.1920E+03
     10.196  0.0000E+00  0.1920E+03
     10.272  0.0000E+00  0.1920E+03
     10.348  0.0000E+00  0.1920E+03
     10.424  0.0000E+00  0.1920E+03
     10.500  0.0000E+00  0.1920E+03
     10.576  0.0000E+00  0.1920E+03
     10.652  0.0000E+00  0.1920E+03
     10.728  0.0000E+00  0.1920E+03
     10.804  0.0000E+00  0.1920E+03
     10.880  0.0000E+00  0.1920E+03
     10.956  0.0000E+00  0.1920E+03
     11.032  0.0000E+00  0.1920E+03
     11.03191441    -11.76104691  301      3.79419797      1.00000000
    -11.761  0.0000E+00  0.0000E+00  0.0000E+00  0.0000E+00  0.0000E+00  0.0000E+00  0.0000E+00  0.0000E+00  0.0000E+00
    -11.685  0.0000E+00  0.0000E+00  0.0000E+00  0.0000E+00  0.0000E+00  0.0000E+00  0.0000E+00  0.0000E+00  0.0000E+00
    -11.609  0.0000E+00  0.0000E+00  0.0000E+00  0.0000E+00  0.0000E+00  0.0000E+00  0.0000E+00  0.0000E+00  0.0000E+00
    -11.533  0.0000E+00  0.0000E+00  0.0000E+00  0.0000E+00  0.0000E+00  0.0000E+00  0.0000E+00  0.0000E+00  0.0000E+00
    -11.457  0.0000E+00  0.0000E+00  0.0000E+00  0.0000E+00  0.0000E+00  0.0000E+00  0.0000E+00  0.0000E+00  0.0000E+00
    -11.381  0.0000E+00  0.0000E+00  0.0000E+00  0.0000E+00  0.0000E+00  0.0000E+00  0.0000E+00  0.0000E+00  0.0000E+00
    -11.305  0.0000E+00  0.0000E+00  0.0000E+00  0.0000E+00  0.0000E+00  0.0000E+00  0.0000E+00  0.0000E+00  0.0000E+00
    -11.229  0.0000E+00  0.0000E+00  0.0000E+00  0.0000E+00  0.0000E+00  0.0000E+00  0.0000E+00  0.0000E+00  0.0000E+00
    -11.153  0.0000E+00  0.0000E+00  0.0000E+00  0.0000E+00  0.0000E+00  0.0000E+00  0.0000E+00  0.0000E+00  0.0000E+00
    -11.077  0.0000E+00  0.0000E+00  0.0000E+00  0.0000E+00  0.0000E+00  0.0000E+00  0.0000E+00  0.0000E+00  0.0000E+00
    -11.001  0.0000E+00  0.0000E+00  0.0000E+00  0.0000E+00  0.0000E+00  0.0000E+00  0.0000E+00  0.0000E+00  0.0000E+00
    -10.925  0.0000E+00  0.0000E+00  0.0000E+00  0.0000E+00  0.0000E+00  0.0000E+00  0.0000E+00  0.0000E+00  0.0000E+00
    -10.849  0.0000E+00  0.0000E+00  0.0000E+00  0.0000E+00  0.0000E+00  0.0000E+00  0.0000E+00  0.0000E+00  0.0000E+00
    -10.773  0.7053E-13  0.2010E-24  0.3434E-23  0.9902E-25  0.3526E-24  0.3403E-26  0.7403E-19  0.3126E-26  0.6485E-25
    -10.697  0.1752E-01  0.4965E-08  0.1491E-10  0.4964E-08  0.8328E-12  0.3353E-09  0.1839E-07  0.3354E-09  0.1201E-11
    -10.621  0.1674E+00  0.8229E-04  0.7647E-04  0.8227E-04  0.3346E-05  0.5611E-05  0.2693E-06  0.5612E-05  0.1960E-05
    -10.545  0.2855E+00  0.1670E-03  0.4179E-03  0.1669E-03  0.1681E-04  0.1229E-04  0.1616E-06  0.1229E-04  0.1025E-04
    -10.469  0.4853E+00  0.4377E-03  0.3996E-03  0.4375E-03  0.2298E-04  0.3157E-04  0.1774E-05  0.3157E-04  0.1079E-04
    -10.393  0.7322E+00  0.3556E-03  0.1429E-02  0.3555E-03  0.6761E-04  0.2887E-04  0.1657E-05  0.2887E-04  0.3745E-04
    -10.317  0.9678E+00  0.5622E-03  0.1114E-02  0.5622E-03  0.5205E-04  0.4818E-04  0.2373E-05  0.4818E-04  0.2590E-04
    -10.242  0.1101E+01  0.2143E-03  0.5581E-03  0.2143E-03  0.2365E-04  0.2860E-04  0.3004E-05  0.2860E-04  0.1655E-04
    -10.166  0.4555E-01  0.1440E-12  0.2111E-07  0.2134E-13  0.1802E-08  0.1577E-14  0.5155E-09  0.5039E-14  0.9062E-07
    -10.090  0.0000E+00  0.0000E+00  0.0000E+00  0.0000E+00  0.0000E+00  0.0000E+00  0.0000E+00  0.0000E+00  0.0000E+00
    -10.014  0.0000E+00  0.0000E+00  0.0000E+00  0.0000E+00  0.0000E+00  0.0000E+00  0.0000E+00  0.0000E+00  0.0000E+00
     -9.938  0.0000E+00  0.0000E+00  0.0000E+00  0.0000E+00  0.0000E+00  0.0000E+00  0.0000E+00  0.0000E+00  0.0000E+00
     -9.862  0.0000E+00  0.0000E+00  0.0000E+00  0.0000E+00  0.0000E+00  0.0000E+00  0.0000E+00  0.0000E+00  0.0000E+00
     -9.786  0.0000E+00  0.0000E+00  0.0000E+00  0.0000E+00  0.0000E+00  0.0000E+00  0.0000E+00  0.0000E+00  0.0000E+00
     -9.710  0.0000E+00  0.0000E+00  0.0000E+00  0.0000E+00  0.0000E+00  0.0000E+00  0.0000E+00  0.0000E+00  0.0000E+00
     -9.634  0.1265E-15  0.5984E-07  0.6788E-17  0.5774E-07  0.6659E-18  0.5170E-08  0.2496E-19  0.5184E-08  0.2892E-18
     -9.558  0.1917E-07  0.5910E-02  0.1211E-05  0.5908E-02  0.7531E-07  0.5359E-03  0.4338E-12  0.5360E-03  0.6973E-07
     -9.482  0.9584E-02  0.3735E-01  0.1116E-01  0.3733E-01  0.6827E-03  0.3467E-02  0.4597E-06  0.3466E-02  0.4044E-03
     -9.406  0.3492E-01  0.5925E-01  0.8519E-01  0.5926E-01  0.5079E-02  0.5761E-02  0.3360E-05  0.5762E-02  0.3016E-02
     -9.330  0.4679E-01  0.5884E-01  0.6843E-01  0.5883E-01  0.4434E-02  0.5853E-02  0.3728E-05  0.5855E-02  0.2460E-02
     -9.254  0.3167E-01  0.7582E-01  0.4939E-01  0.7583E-01  0.3250E-02  0.7901E-02  0.5151E-05  0.7900E-02  0.1791E-02
     -9.178  0.2499E-01  0.7104E-01  0.7773E-01  0.7105E-01  0.5189E-02  0.7614E-02  0.7505E-05  0.7613E-02  0.2976E-02
     -9.102  0.1509E-01  0.8110E-01  0.9163E-01  0.8110E-01  0.6095E-02  0.8724E-02  0.6478E-05  0.8723E-02  0.3565E-02
     -9.026  0.1970E-02  0.3104E-01  0.3564E-01  0.3104E-01  0.2414E-02  0.3285E-02  0.7426E-06  0.3285E-02  0.1395E-02
     -8.950  0.0000E+00  0.0000E+00  0.0000E+00  0.0000E+00  0.0000E+00  0.0000E+00  0.0000E+00  0.0000E+00  0.0000E+00
     -8.874  0.0000E+00  0.0000E+00  0.0000E+00  0.0000E+00  0.0000E+00  0.0000E+00  0.0000E+00  0.0000E+00  0.0000E+00
     -8.798  0.0000E+00  0.0000E+00  0.0000E+00  0.0000E+00  0.0000E+00  0.0000E+00  0.0000E+00  0.0000E+00  0.0000E+00
     -8.722  0.0000E+00  0.0000E+00  0.0000E+00  0.0000E+00  0.0000E+00  0.0000E+00  0.0000E+00  0.0000E+00  0.0000E+00
     -8.646  0.0000E+00  0.0000E+00  0.0000E+00  0.0000E+00  0.0000E+00  0.0000E+00  0.0000E+00  0.0000E+00  0.0000E+00
     -8.570  0.0000E+00  0.0000E+00  0.0000E+00  0.0000E+00  0.0000E+00  0.0000E+00  0.0000E+00  0.0000E+00  0.0000E+00
     -8.494  0.3967E-09  0.3376E-14  0.1439E-10  0.3372E-14  0.4168E-12  0.4063E-15  0.2790E-11  0.4070E-15  0.2720E-10
     -8.418  0.2633E-02  0.2047E-02  0.1693E-02  0.2047E-02  0.1126E-03  0.2229E-03  0.4237E-05  0.2235E-03  0.9849E-04
     -8.342  0.3358E-01  0.7241E-02  0.2900E-02  0.7241E-02  0.1918E-03  0.9532E-03  0.7163E-05  0.9529E-03  0.1019E-03
     -8.266  0.0000E+00  0.0000E+00  0.0000E+00  0.0000E+00  0.0000E+00  0.0000E+00  0.0000E+00  0.0000E+00  0.0000E+00
     -8.190  0.0000E+00  0.0000E+00  0.0000E+00  0.0000E+00  0.0000E+00  0.0000E+00  0.0000E+00  0.0000E+00  0.0000E+00
     -8.114  0.0000E+00  0.0000E+00  0.0000E+00  0.0000E+00  0.0000E+00  0.0000E+00  0.0000E+00  0.0000E+00  0.0000E+00
     -8.038  0.0000E+00  0.0000E+00  0.0000E+00  0.0000E+00  0.0000E+00  0.0000E+00  0.0000E+00  0.0000E+00  0.0000E+00
     -7.962  0.0000E+00  0.0000E+00  0.0000E+00  0.0000E+00  0.0000E+00  0.0000E+00  0.0000E+00  0.0000E+00  0.0000E+00
     -7.886  0.0000E+00  0.0000E+00  0.0000E+00  0.0000E+00  0.0000E+00  0.0000E+00  0.0000E+00  0.0000E+00  0.0000E+00
     -7.810  0.0000E+00  0.0000E+00  0.0000E+00  0.0000E+00  0.0000E+00  0.0000E+00  0.0000E+00  0.0000E+00  0.0000E+00
     -7.734  0.0000E+00  0.0000E+00  0.0000E+00  0.0000E+00  0.0000E+00  0.0000E+00  0.0000E+00  0.0000E+00  0.0000E+00
     -7.658  0.0000E+00  0.0000E+00  0.0000E+00  0.0000E+00  0.0000E+00  0.0000E+00  0.0000E+00  0.0000E+00  0.0000E+00
     -7.582  0.0000E+00  0.0000E+00  0.0000E+00  0.0000E+00  0.0000E+00  0.0000E+00  0.0000E+00  0.0000E+00  0.0000E+00
     -7.506  0.0000E+00  0.0000E+00  0.0000E+00  0.0000E+00  0.0000E+00  0.0000E+00  0.0000E+00  0.0000E+00  0.0000E+00
     -7.430  0.0000E+00  0.0000E+00  0.0000E+00  0.0000E+00  0.0000E+00  0.0000E+00  0.0000E+00  0.0000E+00  0.0000E+00
     -7.354  0.0000E+00  0.0000E+00  0.0000E+00  0.0000E+00  0.0000E+00  0.0000E+00  0.0000E+00  0.0000E+00  0.0000E+00
     -7.278  0.0000E+00  0.0000E+00  0.0000E+00  0.0000E+00  0.0000E+00  0.0000E+00  0.0000E+00  0.0000E+00  0.0000E+00
     -7.202  0.0000E+00  0.0000E+00  0.0000E+00  0.0000E+00  0.0000E+00  0.0000E+00  0.0000E+00  0.0000E+00  0.0000E+00
     -7.126  0.0000E+00  0.0000E+00  0.0000E+00  0.0000E+00  0.0000E+00  0.0000E+00  0.0000E+00  0.0000E+00  0.0000E+00
     -7.051  0.0000E+00  0.0000E+00  0.0000E+00  0.0000E+00  0.0000E+00  0.0000E+00  0.0000E+00  0.0000E+00  0.0000E+00
     -6.975  0.0000E+00  0.0000E+00  0.0000E+00  0.0000E+00  0.0000E+00  0.0000E+00  0.0000E+00  0.0000E+00  0.0000E+00
     -6.899  0.0000E+00  0.0000E+00  0.0000E+00  0.0000E+00  0.0000E+00  0.0000E+00  0.0000E+00  0.0000E+00  0.0000E+00
     -6.823  0.0000E+00  0.0000E+00  0.0000E+00  0.0000E+00  0.0000E+00  0.0000E+00  0.0000E+00  0.0000E+00  0.0000E+00
     -6.747  0.0000E+00  0.0000E+00  0.0000E+00  0.0000E+00  0.0000E+00  0.0000E+00  0.0000E+00  0.0000E+00  0.0000E+00
     -6.671  0.0000E+00  0.0000E+00  0.0000E+00  0.0000E+00  0.0000E+00  0.0000E+00  0.0000E+00  0.0000E+00  0.0000E+00
     -6.595  0.0000E+00  0.0000E+00  0.0000E+00  0.0000E+00  0.0000E+00  0.0000E+00  0.0000E+00  0.0000E+00  0.0000E+00
     -6.519  0.0000E+00  0.0000E+00  0.0000E+00  0.0000E+00  0.0000E+00  0.0000E+00  0.0000E+00  0.0000E+00  0.0000E+00
     -6.443  0.0000E+00  0.0000E+00  0.0000E+00  0.0000E+00  0.0000E+00  0.0000E+00  0.0000E+00  0.0000E+00  0.0000E+00
     -6.367  0.0000E+00  0.0000E+00  0.0000E+00  0.0000E+00  0.0000E+00  0.0000E+00  0.0000E+00  0.0000E+00  0.0000E+00
     -6.291  0.0000E+00  0.0000E+00  0.0000E+00  0.0000E+00  0.0000E+00  0.0000E+00  0.0000E+00  0.0000E+00  0.0000E+00
     -6.215  0.0000E+00  0.0000E+00  0.0000E+00  0.0000E+00  0.0000E+00  0.0000E+00  0.0000E+00  0.0000E+00  0.0000E+00
     -6.139  0.0000E+00  0.0000E+00  0.0000E+00  0.0000E+00  0.0000E+00  0.0000E+00  0.0000E+00  0.0000E+00  0.0000E+00
     -6.063  0.0000E+00  0.0000E+00  0.0000E+00  0.0000E+00  0.0000E+00  0.0000E+00  0.0000E+00  0.0000E+00  0.0000E+00
     -5.987  0.0000E+00  0.0000E+00  0.0000E+00  0.0000E+00  0.0000E+00  0.0000E+00  0.0000E+00  0.0000E+00  0.0000E+00
     -5.911  0.0000E+00  0.0000E+00  0.0000E+00  0.0000E+00  0.0000E+00  0.0000E+00  0.0000E+00  0.0000E+00  0.0000E+00
     -5.835  0.0000E+00  0.0000E+00  0.0000E+00  0.0000E+00  0.0000E+00  0.0000E+00  0.0000E+00  0.0000E+00  0.0000E+00
     -5.759  0.0000E+00  0.0000E+00  0.0000E+00  0.0000E+00  0.0000E+00  0.0000E+00  0.0000E+00  0.0000E+00  0.0000E+00
     -5.683  0.0000E+00  0.0000E+00  0.0000E+00  0.0000E+00  0.0000E+00  0.0000E+00  0.0000E+00  0.0000E+00  0.0000E+00
     -5.607  0.0000E+00  0.0000E+00  0.0000E+00  0.0000E+00  0.0000E+00  0.0000E+00  0.0000E+00  0.0000E+00  0.0000E+00
     -5.531  0.0000E+00  0.0000E+00  0.0000E+00  0.0000E+00  0.0000E+00  0.0000E+00  0.0000E+00  0.0000E+00  0.0000E+00
     -5.455  0.0000E+00  0.0000E+00  0.0000E+00  0.0000E+00  0.0000E+00  0.0000E+00  0.0000E+00  0.0000E+00  0.0000E+00
     -5.379  0.1994E-16  0.3355E-28  0.8092E-22  0.3748E-28  0.4196E-21  0.9163E-30  0.6973E-22  0.1265E-31  0.1567E-23
     -5.303  0.4604E+00  0.1578E-05  0.2616E-05  0.1577E-05  0.9022E-05  0.3035E-05  0.1044E-05  0.3034E-05  0.2204E-06
     -5.227  0.6658E+01  0.2702E-03  0.3752E-03  0.2701E-03  0.9643E-04  0.6768E-04  0.1903E-04  0.6767E-04  0.3116E-04
     -5.151  0.2112E+01  0.6385E-04  0.5685E-04  0.6385E-04  0.8109E-05  0.2624E-04  0.1644E-04  0.2624E-04  0.1020E-04
     -5.075  0.0000E+00  0.0000E+00  0.0000E+00  0.0000E+00  0.0000E+00  0.0000E+00  0.0000E+00  0.0000E+00  0.0000E+00
     -4.999  0.0000E+00  0.0000E+00  0.0000E+00  0.0000E+00  0.0000E+00  0.0000E+00  0.0000E+00  0.0000E+00  0.0000E+00
     -4.923  0.0000E+00  0.0000E+00  0.0000E+00  0.0000E+00  0.0000E+00  0.0000E+00  0.0000E+00  0.0000E+00  0.0000E+00
     -4.847  0.0000E+00  0.0000E+00  0.0000E+00  0.0000E+00  0.0000E+00  0.0000E+00  0.0000E+00  0.0000E+00  0.0000E+00
     -4.771  0.0000E+00  0.0000E+00  0.0000E+00  0.0000E+00  0.0000E+00  0.0000E+00  0.0000E+00  0.0000E+00  0.0000E+00
     -4.695  0.0000E+00  0.0000E+00  0.0000E+00  0.0000E+00  0.0000E+00  0.0000E+00  0.0000E+00  0.0000E+00  0.0000E+00
     -4.619  0.0000E+00  0.0000E+00  0.0000E+00  0.0000E+00  0.0000E+00  0.0000E+00  0.0000E+00  0.0000E+00  0.0000E+00
     -4.543  0.0000E+00  0.0000E+00  0.0000E+00  0.0000E+00  0.0000E+00  0.0000E+00  0.0000E+00  0.0000E+00  0.0000E+00
     -4.467  0.0000E+00  0.0000E+00  0.0000E+00  0.0000E+00  0.0000E+00  0.0000E+00  0.0000E+00  0.0000E+00  0.0000E+00
     -4.391  0.0000E+00  0.0000E+00  0.0000E+00  0.0000E+00  0.0000E+00  0.0000E+00  0.0000E+00  0.0000E+00  0.0000E+00
     -4.315  0.0000E+00  0.0000E+00  0.0000E+00  0.0000E+00  0.0000E+00  0.0000E+00  0.0000E+00  0.0000E+00  0.0000E+00
     -4.239  0.0000E+00  0.0000E+00  0.0000E+00  0.0000E+00  0.0000E+00  0.0000E+00  0.0000E+00  0.0000E+00  0.0000E+00
     -4.163  0.0000E+00  0.0000E+00  0.0000E+00  0.0000E+00  0.0000E+00  0.0000E+00  0.0000E+00  0.0000E+00  0.0000E+00
     -4.087  0.0000E+00  0.0000E+00  0.0000E+00  0.0000E+00  0.0000E+00  0.0000E+00  0.0000E+00  0.0000E+00  0.0000E+00
     -4.011  0.0000E+00  0.0000E+00  0.0000E+00  0.0000E+00  0.0000E+00  0.0000E+00  0.0000E+00  0.0000E+00  0.0000E+00
     -3.935  0.0000E+00  0.0000E+00  0.0000E+00  0.0000E+00  0.0000E+00  0.0000E+00  0.0000E+00  0.0000E+00  0.0000E+00
     -3.859  0.0000E+00  0.0000E+00  0.0000E+00  0.0000E+00  0.0000E+00  0.0000E+00  0.0000E+00  0.0000E+00  0.0000E+00
     -3.784  0.0000E+00  0.0000E+00  0.0000E+00  0.0000E+00  0.0000E+00  0.0000E+00  0.0000E+00  0.0000E+00  0.0000E+00
     -3.708  0.0000E+00  0.0000E+00  0.0000E+00  0.0000E+00  0.0000E+00  0.0000E+00  0.0000E+00  0.0000E+00  0.0000E+00
     -3.632  0.0000E+00  0.0000E+00  0.0000E+00  0.0000E+00  0.0000E+00  0.0000E+00  0.0000E+00  0.0000E+00  0.0000E+00
     -3.556  0.0000E+00  0.0000E+00  0.0000E+00  0.0000E+00  0.0000E+00  0.0000E+00  0.0000E+00  0.0000E+00  0.0000E+00
     -3.480  0.0000E+00  0.0000E+00  0.0000E+00  0.0000E+00  0.0000E+00  0.0000E+00  0.0000E+00  0.0000E+00  0.0000E+00
     -3.404  0.0000E+00  0.0000E+00  0.0000E+00  0.0000E+00  0.0000E+00  0.0000E+00  0.0000E+00  0.0000E+00  0.0000E+00
     -3.328  0.0000E+00  0.0000E+00  0.0000E+00  0.0000E+00  0.0000E+00  0.0000E+00  0.0000E+00  0.0000E+00  0.0000E+00
     -3.252  0.0000E+00  0.0000E+00  0.0000E+00  0.0000E+00  0.0000E+00  0.0000E+00  0.0000E+00  0.0000E+00  0.0000E+00
     -3.176  0.0000E+00  0.0000E+00  0.0000E+00  0.0000E+00  0.0000E+00  0.0000E+00  0.0000E+00  0.0000E+00  0.0000E+00
     -3.100  0.0000E+00  0.0000E+00  0.0000E+00  0.0000E+00  0.0000E+00  0.0000E+00  0.0000E+00  0.0000E+00  0.0000E+00
     -3.024  0.0000E+00  0.0000E+00  0.0000E+00  0.0000E+00  0.0000E+00  0.0000E+00  0.0000E+00  0.0000E+00  0.0000E+00
     -2.948  0.0000E+00  0.0000E+00  0.0000E+00  0.0000E+00  0.0000E+00  0.0000E+00  0.0000E+00  0.0000E+00  0.0000E+00
     -2.872  0.0000E+00  0.0000E+00  0.0000E+00  0.0000E+00  0.0000E+00  0.0000E+00  0.0000E+00  0.0000E+00  0.0000E+00
     -2.796  0.0000E+00  0.0000E+00  0.0000E+00  0.0000E+00  0.0000E+00  0.0000E+00  0.0000E+00  0.0000E+00  0.0000E+00
     -2.720  0.0000E+00  0.0000E+00  0.0000E+00  0.0000E+00  0.0000E+00  0.0000E+00  0.0000E+00  0.0000E+00  0.0000E+00
     -2.644  0.0000E+00  0.0000E+00  0.0000E+00  0.0000E+00  0.0000E+00  0.0000E+00  0.0000E+00  0.0000E+00  0.0000E+00
     -2.568  0.0000E+00  0.0000E+00  0.0000E+00  0.0000E+00  0.0000E+00  0.0000E+00  0.0000E+00  0.0000E+00  0.0000E+00
     -2.492  0.0000E+00  0.0000E+00  0.0000E+00  0.0000E+00  0.0000E+00  0.0000E+00  0.0000E+00  0.0000E+00  0.0000E+00
     -2.416  0.0000E+00  0.0000E+00  0.0000E+00  0.0000E+00  0.0000E+00  0.0000E+00  0.0000E+00  0.0000E+00  0.0000E+00
     -2.340  0.0000E+00  0.0000E+00  0.0000E+00  0.0000E+00  0.0000E+00  0.0000E+00  0.0000E+00  0.0000E+00  0.0000E+00
     -2.264  0.0000E+00  0.0000E+00  0.0000E+00  0.0000E+00  0.0000E+00  0.0000E+00  0.0000E+00  0.0000E+00  0.0000E+00
     -2.188  0.0000E+00  0.0000E+00  0.0000E+00  0.0000E+00  0.0000E+00  0.0000E+00  0.0000E+00  0.0000E+00  0.0000E+00
     -2.112  0.0000E+00  0.0000E+00  0.0000E+00  0.0000E+00  0.0000E+00  0.0000E+00  0.0000E+00  0.0000E+00  0.0000E+00
     -2.036  0.2319E-04  0.5735E-03  0.8406E-03  0.5740E-03  0.5783E-06  0.1496E-05  0.2648E-08  0.1486E-05  0.2591E-05
     -1.960  0.1816E-02  0.1069E+00  0.1150E+00  0.1069E+00  0.1420E-03  0.4223E-03  0.3441E-04  0.4224E-03  0.3143E-03
     -1.884  0.1513E-02  0.1555E+00  0.1414E+00  0.1556E+00  0.2749E-03  0.7548E-03  0.1408E-03  0.7548E-03  0.5920E-03
     -1.808  0.1201E-02  0.9326E-01  0.9344E-01  0.9325E-01  0.3813E-03  0.5991E-03  0.1104E-03  0.5992E-03  0.2166E-03
     -1.732  0.1803E-02  0.4085E+00  0.2604E+00  0.4085E+00  0.1493E-02  0.2810E-02  0.4672E-03  0.2810E-02  0.1581E-02
     -1.656  0.2497E-02  0.2869E+00  0.2466E+00  0.2868E+00  0.2962E-02  0.2731E-02  0.7448E-03  0.2732E-02  0.7132E-03
     -1.580  0.1838E-02  0.2352E+00  0.2916E+00  0.2352E+00  0.3823E-02  0.2492E-02  0.7369E-03  0.2492E-02  0.1563E-02
     -1.504  0.4100E-02  0.2136E+00  0.4030E+00  0.2136E+00  0.2417E-02  0.3385E-02  0.2173E-02  0.3386E-02  0.2447E-02
     -1.428  0.2465E-02  0.1914E+00  0.2417E+00  0.1913E+00  0.1662E-02  0.3361E-02  0.1953E-02  0.3361E-02  0.1409E-02
     -1.352  0.5687E-02  0.1741E+00  0.2220E+00  0.1742E+00  0.1819E-02  0.4168E-02  0.2982E-02  0.4170E-02  0.1915E-02
     -1.276  0.6100E-02  0.1001E+00  0.3551E-01  0.1001E+00  0.1095E-02  0.2586E-02  0.1421E-02  0.2586E-02  0.1567E-02
     -1.200  0.4304E-02  0.4353E-01  0.1080E-01  0.4353E-01  0.7159E-03  0.1360E-02  0.6087E-03  0.1360E-02  0.8195E-03
     -1.124  0.3685E-02  0.1713E-01  0.1841E-01  0.1712E-01  0.2356E-02  0.6897E-03  0.2537E-02  0.6897E-03  0.1099E-02
     -1.048  0.1040E-01  0.8258E-01  0.3829E-01  0.8259E-01  0.3837E-02  0.2152E-02  0.4648E-02  0.2152E-02  0.5584E-02
     -0.972  0.2794E-02  0.1010E-01  0.7576E-02  0.1009E-01  0.2662E-02  0.1052E-02  0.1194E-02  0.1051E-02  0.2206E-02
     -0.896  0.2842E-02  0.8809E-01  0.3180E-01  0.8810E-01  0.6322E-02  0.2770E-02  0.1368E-02  0.2770E-02  0.4649E-02
     -0.820  0.1013E-01  0.1497E+00  0.1665E+00  0.1496E+00  0.6951E-02  0.4958E-02  0.5446E-02  0.4958E-02  0.6358E-02
     -0.744  0.3147E-02  0.3030E-01  0.5992E-01  0.3033E-01  0.5310E-02  0.4270E-02  0.1897E-02  0.4270E-02  0.2366E-02
     -0.668  0.6540E-02  0.8553E-01  0.6342E-01  0.8553E-01  0.3990E-02  0.8084E-02  0.2449E-02  0.8083E-02  0.1496E-02
     -0.592  0.5693E-02  0.4160E-01  0.6380E-01  0.4158E-01  0.5480E-02  0.5789E-02  0.2293E-02  0.5786E-02  0.2059E-02
     -0.517  0.1069E-01  0.8600E-01  0.1341E+00  0.8595E-01  0.5999E-02  0.9662E-02  0.3500E-02  0.9664E-02  0.5141E-02
     -0.441  0.8159E-02  0.5738E-01  0.8781E-01  0.5737E-01  0.5078E-02  0.8949E-02  0.3320E-02  0.8946E-02  0.6989E-02
     -0.365  0.9318E-02  0.7796E-01  0.6473E-01  0.7798E-01  0.8846E-02  0.1204E-01  0.4327E-02  0.1204E-01  0.6815E-02
     -0.289  0.6592E-02  0.9663E-01  0.9109E-01  0.9661E-01  0.1364E-01  0.1600E-01  0.6732E-02  0.1601E-01  0.9685E-02
     -0.213  0.6352E-02  0.9863E-01  0.9137E-01  0.9866E-01  0.1121E-01  0.1942E-01  0.3688E-02  0.1942E-01  0.1131E-01
     -0.137  0.8581E-02  0.7185E-01  0.4960E-01  0.7186E-01  0.7971E-02  0.1051E-01  0.1714E-02  0.1050E-01  0.6212E-02
     -0.061  0.7678E-02  0.5985E-01  0.5387E-01  0.5981E-01  0.2960E-02  0.6814E-02  0.1511E-02  0.6806E-02  0.3563E-02
      0.015  0.3432E-02  0.3578E-01  0.6065E-02  0.3583E-01  0.4388E-03  0.3457E-02  0.2207E-03  0.3465E-02  0.2260E-03
      0.091  0.0000E+00  0.0000E+00  0.0000E+00  0.0000E+00  0.0000E+00  0.0000E+00  0.0000E+00  0.0000E+00  0.0000E+00